50
Lattice="9.227028 0.0 0.0 0.0 9.227028 0.0 0.0 0.0 13.290423" Properties=species:S:1:pos:R:3:forces:R:3 energy=-213.3729312 stress="0.004163651262536261 0.0007757218672804141 -1.833943874760103e-05 0.0007757218672804141 0.005750890058175539 0.00301246091556999 -1.833943874760103e-05 0.00301246091556999 0.006209684332450347" free_energy=-213.3729312 pbc="T T T"
Li       2.37698954       2.65107757       4.18879804      -0.12140828      -0.08110797      -0.19937386
Li       7.08980426       6.62550012       4.28522604      -0.17385577      -0.28427015       0.26204226
Li       3.42504890       6.76846489      11.96270230       0.07274276       0.91308565       0.04981404
Li       7.09474090       3.00888031       9.95014657       0.06639010       0.06726688      -0.15940671
Li       2.23261183       6.05976409       5.24396619       0.18427741      -0.10799517      -0.23991825
Li       6.76115441       2.32667446       3.24274905       0.09545706      -0.13871304      -0.15078681
Li       4.90199851       0.44994799      10.36268741      -0.58623124       0.34430540      -0.93367984
Li       6.65314983       6.94784533      11.37290788       0.03849903       0.07659566      -0.15123681
Li       9.10252919       0.40070879      12.60228862      -0.12750920      -0.25955429      -0.29348512
Li       0.08930776       0.07969864       5.68815897      -0.03044918       0.03339535       0.04692281
Li       4.92808728       4.05928334       7.05661322       0.01432780       0.09578014       0.03290564
Li       4.58216360       4.58511515       0.92864837      -0.34164737       0.05017545      -0.09874004
Li       2.19164447       7.21014085       1.79328010       0.29268632      -0.05511906       0.34538617
Li       6.55362683       2.75426675       0.16542855       0.15312862      -0.33836272       0.15738791
Li       2.04264864       2.20628648       8.94169200      -0.03035291       0.45476877       0.14237770
Li       6.91006397       6.72865866       8.17957316       0.12896701       0.08930216      -0.03350894
Li       2.17372042       6.78593793       8.55132224      -0.15588086       0.21233325       0.18023022
Li       6.96874169       2.11816661       6.15654697       0.35738369       0.13122469       0.43327870
Li       2.63601999       2.42254780      13.22575406       0.04583680       0.06911566       0.27176545
Li       6.96990023       7.20391436       1.59895311      -0.62623814      -0.17633900       0.07789274
Ge       4.54555436       4.51316426      10.78313805       0.69306521      -0.62897995      -0.07936447
Ge       4.80578044       4.60646796       4.04520445      -0.32656458       0.22045766      -0.80377503
P        8.93225961       0.01554717       9.02970610      -0.01074832       0.89090965       0.31214749
P        9.17083199       9.20276968       2.39976423       0.30947779       0.02524716      -0.26213896
P        9.17819755       4.47309903       6.52427556      -0.54636366      -0.19230318      -0.02112640
P        4.68467616       0.24478419      13.15473403      -0.33272908       0.85301063       0.99382710
S        4.94241510       2.60714428       5.02222239      -0.36121992      -0.29770002      -0.04709939
S        4.78268021       6.13762120       5.62514588       0.17053609       0.28237977      -0.03978777
S        2.92792791       4.63346283      12.30704188      -0.18555726      -0.61737071      -0.04949258
S        6.56635515       4.52553226      11.89572162      -0.41092216       0.02856156      -0.34340564
S        9.02816220       6.29652492       5.60140454       0.35354264       0.02445890      -0.38250874
S        9.17700699       2.80499427       5.22956774       0.12986416       0.61674339       0.20350863
S        3.06490830       0.46318407      11.91006412      -0.34050274      -0.37569124       0.04313157
S        6.32987315       0.32954183      11.98230846       1.19135849      -0.07661469       0.30483708
S        4.67170619       1.67846929       1.37386319      -0.04375145       0.51327462      -0.87005976
S        4.62601533       7.78902503       0.94415550      -0.25006876      -1.61914006      -0.06224078
S        1.63657849       4.58803781       7.65895818       0.57723459      -0.39294709      -0.07254016
S        7.49621443       4.33353820       7.70241574      -0.39805253      -0.40615174       0.24737430
S        9.13050830       7.59997928       1.07577615       0.58838227       0.04750412      -0.29729214
S        8.87996478       1.67875440       1.30429699       0.12368289       0.56090468       0.06128337
S        1.32969889       0.28855629       7.82795814       0.96945205      -1.01036301      -0.29670086
S        7.35985215       0.09863471       7.75361457      -0.96371860      -0.26455395      -0.24626174
S        9.05546931       1.64509503      10.32336876       0.15438533      -0.05085926       0.20260547
S        8.87459945       7.54210662      10.11902651       0.16844692      -0.58540332      -0.11600746
S        7.57455199       8.97981368       3.67788042      -0.26625023       0.08112993       0.22025767
S        1.76042430       0.01149595       3.34949321      -0.37808215      -0.10783752       0.14328588
S        4.58333165       6.52160277       9.77120897      -0.12141947       0.29163460      -0.15860633
S        4.59873525       2.78118402       9.26031554      -0.14867330       0.50652460       0.38798821
S        6.40410192       4.65714271       2.41691765       0.45006819       0.69266789       0.63616669
S        2.89403205       4.79041486       2.82099635      -0.05099607      -0.10538106       0.65212753
50
Lattice="9.227028 0.0 0.0 0.0 9.227028 0.0 0.0 0.0 13.290423" Properties=species:S:1:pos:R:3:forces:R:3 energy=-209.43289479 stress="0.009566635838405065 -0.002067893013159614 0.0011983179351608224 -0.002067893013159614 0.008901054281318347 -0.0022522962407216774 0.0011983179351608224 -0.0022522962407216774 0.008145758408010843" free_energy=-209.43289479 pbc="T T T"
Li       1.26289539       2.92136832       3.08789914       0.16284925      -0.33499314       0.44622642
Li       7.33704201       2.74419693       3.84578179       0.37566928      -0.14740694      -0.06421632
Li       6.73803175       6.91035554      10.43526256      -0.28933284       0.52881109      -0.20932425
Li       2.37511451       7.66789980      11.15376662       0.00274518      -1.49781622      -0.91479343
Li       1.83911369       6.72694649       7.92830681       0.19675164      -0.45625340       0.26066155
Li       8.87361594       8.77982329      12.20635775      -0.23214288       0.07921344       0.37081843
Li       2.25352840       6.45655130       0.90178710       0.27615491       0.04392492      -0.02345065
Li       2.19010236       6.74054114       4.00607785       0.22099093      -0.22255301       0.11118097
Li       7.26260241       6.74586273       3.65288765       0.04940086       0.21483737       0.14774328
Li       0.31522259       8.93909896       5.67587171      -0.09345206       0.11463712      -0.00640201
Li       4.82788471       4.32411509       7.01981457      -0.41854469      -0.44706952      -0.12153588
Li       4.51570510       0.52726292      10.24542548      -0.16554805       0.26863193      -0.23527038
Li       6.76917131       5.82002800       0.34527256      -0.41686846       0.51828675      -0.40107497
Li       4.82473110       0.53844202       3.42543668      -0.03576125       0.19524833      -0.36621752
Li       2.60006530       2.17364153       0.27517422      -0.37252251       0.60019499      -0.22329535
Li       6.56687896       6.13403004       6.68976379      -0.19795051       1.92957241      -0.64864237
Li       7.81644582       2.27691126       7.26858271      -0.54552649      -0.82747251      -0.26229566
Li       7.27187253       3.30062408       9.72660458      -0.39997448       0.08463400       0.35046880
Li       1.56332234       1.96257705       8.63935867       0.66649853       0.60493425       0.04502151
Li       6.68862028       2.74437722       0.20474295       0.00409417       0.09798042      -0.12042730
Ge       4.31597353       4.78015293      10.73320008      -0.00499805       0.08188754      -0.06089122
Ge       4.92690438       4.44065440       3.39029294      -0.98261209       0.13311371       2.11983232
P        9.05721129       9.06803754       9.24693859      -1.43114629      -1.86590786      -1.35511206
P        0.05403597       0.14456308       2.47649582       1.19670608      -0.46698510       0.58560034
P        0.15248291       4.37895917       6.44102236      -0.07122289       1.74247360       0.83101543
P        4.71576285       0.03943170      13.23990437       0.17820144       1.16359854      -1.55884524
S        5.25271295       2.56204838       4.67578731      -0.61072065       0.57849679      -0.00828920
S        4.98255987       6.22725338       5.06828673      -0.37469203      -0.55634089      -0.92269189
S        3.19298490       4.80563299      12.73406423       0.10034531      -0.46711776      -1.34459374
S        6.57075487       4.89041554      11.41955301      -0.17138343      -0.68721309       0.33570094
S        0.24394647       6.33884976       5.55413210      -0.30038600      -1.30160728      -0.34561675
S        0.05601175       2.59682053       5.49236140      -0.04108612       0.33725530      -1.13644554
S        2.79213226       0.20087683      12.26200582       0.96512681       0.76092959       0.47085539
S        6.24526039       0.09780770      11.68914526      -0.46751392       0.30755836       1.11658957
S        4.67672468       1.81390499       1.09646109       0.77106406      -1.07714287      -0.03166092
S        4.92923937       7.59959931       0.90639808      -0.14408756      -1.07599956       1.30197629
S        1.70348985       4.30503471       7.72570282      -0.04031517      -0.25644029       0.11965622
S        7.49833600       4.52720973       7.53993620       1.13474957      -1.47549245       0.87940557
S        9.00510414       7.66788938       1.44209702       0.50487553      -0.78301700      -1.03635812
S        0.13500065       1.79323257       1.27053334      -0.55008509       0.36801687      -0.03549368
S        1.33839065       9.00558606       7.84576850       0.75846228       0.46618969       0.27366449
S        7.31433264       9.10997568       7.91446869       0.95727438       0.15375035       1.34767006
S        0.03320088       1.44539807      10.44833303      -0.16625881       0.36707568       0.04180734
S        9.17101837       7.16328471      10.36547681       0.10630765       1.74769384      -0.61327485
S        7.89852807       9.22607651       3.94422395      -1.28042159       0.54289527       0.24494482
S        1.82540260       0.18859242       3.63122280       0.02513901      -0.34299127      -0.26993527
S        3.97447551       6.67276963       9.35982997       0.33973417      -0.51266848       0.65532044
S        4.49888202       2.91372225       9.26031261      -0.06548702       0.67164933       0.43066393
S        6.82588164       4.79568681       2.37203496       0.53311016      -0.67222747      -0.45257378
S        2.82544414       4.52001154       2.53682398       0.34378973       0.77122464       0.28190424
50
Lattice="9.227028 0.0 0.0 0.0 9.227028 0.0 0.0 0.0 13.290423" Properties=species:S:1:pos:R:3:forces:R:3 energy=-211.80217029 stress="0.005975149590698609 -0.0007572081968055641 -4.5697833216066864e-07 -0.0007572081968055641 0.006100635381334857 0.001150655736743603 -4.5697833216066864e-07 0.001150655736743603 0.00542914066843435" free_energy=-211.80217029 pbc="T T T"
Li       7.17798060       2.42762876      12.99590669      -0.41354734       0.06568482      -0.28070298
Li       6.74083428       6.39008228       5.80242763      -0.03096373       0.04261545       0.02086919
Li       2.36847271       6.92191332       3.48758203       0.05463441      -0.13797021       0.10073591
Li       4.05545052       0.62759107      10.04364031       0.42997132       0.07357150      -0.21771521
Li       6.86091325       7.05087811      10.78829886       0.09390465       0.61074488      -0.25946002
Li       7.13903295       3.40223129       9.50682670      -0.06325566      -0.15881262       0.05900653
Li       2.16111058       2.42704875       3.90896592       0.33490868      -0.05585420       0.71808944
Li       7.07676776       7.29735038       2.22409687      -0.09035362       0.04228108       0.00856739
Li       2.86128228       7.32737910       0.09747648      -0.45263765      -0.23355415      -0.25924917
Li       9.06691600       8.60428868       5.71029762       0.12279243       0.49542301       0.29181731
Li       1.81349549       6.45670807      10.36333506       0.91921193      -0.57752281      -0.38062051
Li       2.60044214       7.20842195       7.23908661       0.01896309      -0.32633837       0.08873849
Li       2.84860647       3.41220201       0.76693954      -0.06389772      -0.34765830      -0.62014867
Li       5.07169472       5.25060716       0.64205768       0.17483042       0.16886167      -0.38643944
Li       7.12240390       2.08714082       5.95540319      -0.01833308       0.18622277       0.21976011
Li       8.89634848       0.04246896      12.57928928       0.00931962      -0.42726888      -0.45480923
Li       2.14089794       2.49275395       8.77215272      -0.30284899       0.42238908      -0.09090496
Li       8.88909539       4.25278399       3.37188584      -0.41538871       0.91296481      -0.66071739
Li       4.42433160       4.77210004       7.46705644      -0.15495291       0.06199965      -0.10897405
Li       6.20784331       2.01606364       2.92972516      -0.36845978       0.16918417      -0.18997685
Ge       4.60769101       4.97466550      10.65405774       0.05778217      -0.42492419      -0.81902896
Ge       4.58189740       4.36949399       4.12488479       0.38459827       0.67733004      -0.70649916
P        0.00906094       0.10370921       9.02461374       0.45635909       1.58858762      -0.03207205
P        0.17278422       0.25275459       2.30170244       0.31862851      -1.70746031       0.47607078
P        9.11634675       4.56398488       6.38948077       1.50243163       0.71687942       0.13373646
P        4.82992656       0.25961830      12.99720743       0.72416921      -0.70742951       0.47793819
S        4.60869463       2.45606139       5.20633342       0.61796122       0.14327633      -0.24142702
S        4.43887912       6.38070624       5.09062142      -0.22768903      -0.01519339       0.63127938
S        2.93289057       5.09860820      11.98831268      -0.97448234      -0.07619703       1.69551721
S        6.57420606       4.93404702      11.64238224       0.38227646      -0.31261950       0.35049991
S        9.12623804       6.29180963       5.27975251       0.01558278       0.34454073      -1.16629386
S        0.12456211       2.99900859       5.06766992      -0.53342905      -0.78759320       1.25629528
S        3.10235887       0.01488430      12.04891395      -1.03018357       0.17962610      -0.40503244
S        6.39712333       0.31301373      11.62637127      -0.12118412      -0.20507815       0.39270283
S        4.93613463       2.08033976       0.66693217       0.29529705       0.01826936       0.59557546
S        4.85831379       7.83532939       1.08656039       0.69291323       0.67168393      -0.02042791
S        1.51187391       4.77393446       7.63868617      -0.06713124      -0.19198469       0.25218037
S        7.31389352       4.55923398       7.27382538      -0.57319773      -0.63148668       0.47226387
S        0.24008238       7.58608965       1.18399395      -0.34010429       1.02781445       0.89709155
S        0.00467976       1.66866834       0.88524850       0.40414021       1.18677981       0.09729693
S        1.69595312       0.28679015       7.76134867      -0.01125407      -0.66264918       0.18806842
S        7.58109681       9.11051804       7.89779572      -0.29392775      -0.34660024      -0.54285635
S        9.18830595       1.99593543       9.94880530       0.08663068      -0.48109038       0.08822582
S        0.23739353       7.94284069      10.53718628      -0.93688948       0.22199026      -0.07541425
S        7.79244475       0.36235914       3.64425764      -0.17611226      -0.73119048      -0.41570179
S        1.84125464       0.25584934       3.54149769      -0.39995988      -0.70590194      -0.67750886
S        4.33919252       6.62547493       9.21115160       0.06084351       0.63671993      -0.31092575
S        4.50248997       3.20198448       9.29668784       0.10064806      -0.87114864      -0.10600154
S        6.37215001       4.83559823       2.61943299      -0.03607192      -0.79110136       0.47850497
S        2.72096235       4.27705273       2.86378313      -0.16254269       1.24918751      -0.56192337
50
Lattice="9.227028 0.0 0.0 0.0 9.227028 0.0 0.0 0.0 13.290423" Properties=species:S:1:pos:R:3:forces:R:3 energy=-213.48982462 stress="0.008770108206287465 0.00115621866899732 0.002771813277229417 0.00115621866899732 0.007881423506039466 -0.0005777485627881658 0.002771813277229417 -0.0005777485627881658 0.005345980629603255" free_energy=-213.48982462 pbc="T T T"
Li       2.71939458       2.59421325       3.66033520      -0.06055017      -0.65339054       0.20437798
Li       0.13750726       4.81703751       3.70102051       0.21997481      -0.33636920      -0.29914240
Li       3.49388954       6.94365552      12.11360947      -0.17466191      -0.25449986       0.29241966
Li       7.49216210       3.11640988       9.86337127      -0.31642284       0.24762003       0.02413814
Li       2.05499145       6.69309945       6.20927194       0.35430813       0.17625989       0.04212744
Li       6.43846891       2.26721107       3.26930863      -0.02399975      -0.02265285      -0.19205254
Li       4.31276050       0.76810727      10.29465945       0.06764127      -0.09618046       0.24983504
Li       6.52331540       7.03883600      10.64528527      -0.05479366      -0.02172337       0.16932263
Li       0.17990758       9.10793549      12.01965110      -0.08785465      -0.11848847       0.31449252
Li       0.49599769       0.77633898       5.65722511      -0.31478708      -0.30548440      -0.19380540
Li       4.50600067       4.08662164       7.05659634      -0.11814975       0.38774553       0.08143592
Li       4.67636178       4.39507860       0.77655330      -0.18584909       0.00449228      -0.14500410
Li       2.54255195       7.18906088       2.10010041      -0.13928275       0.01069027       0.09058522
Li       6.95986870       2.25813896      13.12507552      -0.11686266      -0.30742942       0.20448875
Li       1.96014120       2.24737812       8.70252539       0.04795490       0.16635595      -0.03399631
Li       6.74941689       6.69965700       6.54067727       0.24587853       0.05052198       0.25379621
Li       1.90747951       6.30363287       9.48693599       0.00279059       0.22028251       0.34604456
Li       6.65951703       2.18212449       6.42535082       0.60495735       0.07428271       0.24474113
Li       2.47649325       2.36552477       0.08738746      -0.06791298      -0.07362500       0.20781533
Li       7.35694610       7.16043901       2.45310109      -0.41154219       0.04681479      -0.11830726
Ge       4.47626205       4.35293064      10.86569417      -0.54941733       0.49029742       0.71249125
Ge       4.62872180       4.75753840       4.12379352      -0.49941368      -0.02677708      -0.25310922
P        9.13608964       9.07446758       8.88620129      -0.64849801       0.48828341      -0.93169187
P        0.14455800       0.30026511       2.25213953      -1.02931885      -0.21136309       0.10168649
P        9.20786079       4.73199808       6.62831685      -0.54584435      -0.86381531       0.55303530
P        4.59473654       0.04179936      13.25302362      -0.23282158       0.36080992       1.11765595
S        4.77715100       2.67660249       5.10552570      -0.30091063       0.13187410      -0.05713347
S        4.63413530       6.38799568       5.60392321      -0.69496613      -0.18049517       0.14905844
S        2.68106256       4.42942197      12.24218474       0.46023282       0.12800443      -0.24942060
S        6.36279159       4.28217281      12.06940606       0.23352167       0.18899061      -0.74919779
S        8.93387277       6.35963023       5.42064787       0.53078208       0.44663450       0.11199720
S        0.06795881       3.10874693       5.42243995       0.12452505      -0.37420196      -0.79944627
S        2.73445125       0.18941935      12.21499839       1.09965209      -0.01298205      -0.08988916
S        6.11023547       0.08782691      11.89577665       0.31559617       0.19375322      -0.56519704
S        4.85123943       1.71837692       1.23458288      -0.42678613      -0.42721411      -0.68281865
S        4.71917897       7.51116332       1.02578169      -0.21126410       0.23855884      -0.35074932
S        1.68602170       4.74021272       7.81853430      -0.21058150      -0.00086091      -0.61708582
S        7.47312361       4.45353081       7.70455138      -0.33632935       0.19597056       0.42631728
S        0.15587191       7.73736687       1.20880876       0.30715168      -0.04772618      -0.35195382
S        0.07745435       1.98078013       1.10979989      -0.19274257       0.19625073      -0.57487477
S        1.60583661       9.16177621       7.59666690      -0.02798851      -0.34520128       1.09245425
S        7.50918376       9.13412548       7.57031173       0.14408677       0.18346555       0.49858118
S        0.06456871       1.56987519      10.13377862       0.11836158      -0.80582636      -0.29266028
S        8.93448812       7.39387737      10.10639490       0.64421128       0.56192502      -0.20022305
S        7.71244439       0.13617340       3.46087067      -0.35580553       0.17811641       0.27088831
S        1.72114134       0.38670991       3.47102123       1.32880347      -0.33110620       0.63704520
S        4.32145651       6.41733375       9.97676210       0.10034475       0.12952327      -0.39882225
S        4.37668756       2.88680692       9.21429173       0.15157598      -0.59355728      -0.40981514
S        6.19805353       4.81766218       2.62465121       1.21747793      -0.02552532      -0.24307858
S        2.77627506       4.60878183       2.72914092       0.01552885       0.93897195       0.40264373
50
Lattice="9.227028 0.0 0.0 0.0 9.227028 0.0 0.0 0.0 13.290423" Properties=species:S:1:pos:R:3:forces:R:3 energy=-208.91350786 stress="0.004394157216252897 0.0011745409498363341 0.0016421979298925497 0.0011745409498363341 0.005657063598565276 0.002009338195430994 0.0016421979298925497 0.002009338195430994 0.005217772723350427" free_energy=-208.91350786 pbc="T T T"
Li       1.96715301       3.18420400       4.67346627       0.37046434      -0.04154704      -0.10801966
Li       3.38164293       0.28047259       2.51280845       0.86583381       0.04147260      -0.83485556
Li       8.65174873       0.23499358      12.32736918       0.09628803      -0.24191281       0.10063332
Li       2.28613764       1.43761221      11.94503707      -0.21962726       0.51712887       0.04582100
Li       7.43392738       2.23823146       7.73388560      -0.32123787       0.05517686       0.15897989
Li       0.26856926       8.85098121       6.49144729      -0.35252253      -0.13070761      -0.94432395
Li       1.72466855       6.62201673       4.03402056       0.80961492      -0.10520122      -0.56083961
Li       6.23729534       7.74607460       2.75366919       0.02692749      -0.06281837      -0.22830154
Li       6.73837721       2.47866419       4.07235081       0.17935613       0.46029750       0.11857387
Li       1.77271720       5.93786776      10.07898712       0.27309776       0.10207526      -0.06256025
Li       5.10656310       9.09583230       9.32510050      -0.32660840       0.38383327       0.46519114
Li       6.99740499       2.43878424       0.46449045      -0.10660494       0.27136569       0.44947416
Li       7.18330386       6.71118977       6.49923853      -0.63881500       0.28109894       0.08517040
Li       6.34580694       1.96473303      11.18904445       0.01139103       0.07416020      -0.93066553
Li       3.24704679       4.22744057       0.82317797       0.21325714      -0.27384143      -1.63646194
Li       8.21685676       6.00579889       3.33541413      -0.37431370      -0.43639856      -0.45348006
Li       6.04460178       5.75522308       0.43508805       0.36763375      -0.53334162      -0.20176747
Li       3.98929827       5.39112926       6.72796326       0.14777992      -0.17228047       0.47793349
Li       1.34424345       2.64316549       8.75519055       0.23295716       0.07511828      -0.09038168
Li       6.54337376       6.75027510      10.04603617       0.13466058      -0.33441547       0.23167000
Ge       4.25573700       3.97606173      10.59078377       2.82211359       0.36445651      -1.55718091
Ge       4.88747747       4.88175579       4.00474934      -0.34787102       1.51377617      -1.56557551
P        0.06576186       9.10493154       9.07700140      -1.50196551       2.13577362       1.57160155
P        9.11057654       9.22629334       2.71414799      -1.52670787       1.44653252      -1.77367210
P        9.07189010       4.65951738       6.82704269       1.13442412      -1.45074193      -0.74881072
P        4.68518909       8.82140176      12.94523829      -0.42420202      -0.01104451      -1.59387989
S        4.72416120       3.19185431       5.23801261      -0.12820341      -0.81968318       1.59542321
S        5.17070008       7.11645044       4.80052099      -0.51271498      -1.78641943       0.41310624
S        2.46413005       4.00925135      11.71496536      -1.08628259      -0.44516322       0.69748932
S        6.30086412       4.17987875      11.86657865      -0.60809218       0.13468471       0.09813550
S        9.13567553       6.29498548       5.33928895      -0.27609857      -0.50066228       1.29979791
S        9.17258503       2.62924301       5.91087376      -0.56710469       1.79910874       0.14195967
S        3.17748561       8.60762038      11.54333005       0.13493825       0.05581588       0.81392408
S        6.31316605       8.87301425      11.60292151       0.42145877      -0.40207140       0.63965390
S        4.72463556       1.28972555       0.76126453      -0.15097966       0.94611636       0.14897352
S        4.61366588       7.37515785       1.07407045      -0.49278553      -0.34612565       0.12077566
S        1.67184363       4.84772227       7.71645760       0.33275351       0.27426910       0.21639843
S        7.59701445       4.63355372       8.17493055      -0.34690355       0.80656953      -0.59764056
S        8.57278743       7.58722623       1.63608416       0.58496064      -0.69360288      -0.08352615
S        0.13073656       1.58596335       1.16427415      -0.18024652      -0.84621788       0.77323769
S        1.72529239       0.29916636       8.06586947       0.57045736      -0.54361553      -0.36698793
S        7.43367271       8.97433910       7.94844260       0.90106268      -0.37977377      -0.19064717
S        9.02323515       1.70692913      10.28311725      -0.13150568      -0.57061832      -0.55436542
S        0.03712347       7.75531731      10.50530681       0.18298737      -1.71638787       0.40314958
S        7.26559068       0.27398174       3.75479077       1.69468510       0.34626242       0.34874843
S        1.66639148       9.09082433       3.75412239      -1.23691402      -0.17331407       0.98436527
S        4.27079044       5.92864230       9.36761856       0.11809275      -0.15173688      -0.12649665
S        4.91216771       2.34860157       8.99868000      -0.47967281       0.24363088       1.11766909
S        6.55911055       4.50965208       2.55068163       0.27093151      -0.07053093      -0.22628747
S        2.90606539       4.60752418       2.82834595      -0.56014737       0.91145044       1.91887141
50
Lattice="9.227028 0.0 0.0 0.0 9.227028 0.0 0.0 0.0 13.290423" Properties=species:S:1:pos:R:3:forces:R:3 energy=-211.31336829 stress="0.004011750562675543 -0.0008117343950198278 0.0005825708775690057 -0.0008117343950198278 0.006731619778982111 -0.0009908908414899273 0.0005825708775690057 -0.0009908908414899273 0.006857469693019253" free_energy=-211.31336829 pbc="T T T"
Li       6.53436200       3.06541228       0.11840106      -0.39890073       0.03950519       0.29104778
Li       7.37615557       6.61274486       6.57935041      -0.28537581       0.00558823       0.21726707
Li       2.39412745       6.26076336       5.55299829       0.25073023      -0.06910206      -0.12915090
Li       4.94763465       0.73456721       9.87329935      -0.10428553      -0.38007723       0.55133394
Li       7.12421148       6.93493164      10.41834478       0.25099278      -0.16111891      -0.25579095
Li       7.06105229       2.91651490      10.14022434       0.14743104      -0.29631125      -0.40245731
Li       1.52623744       2.82767791       3.65707705       0.05168284       0.07799784       0.05491004
Li       7.56362027       6.88595937       2.45546971      -0.23144922       0.01380720       0.07427629
Li       2.21574870       7.40545277       1.62106320       0.63940001      -0.18743618       0.35255473
Li       0.53740010       0.22998395       6.04101000      -0.42385392       0.24870437      -0.50284084
Li       2.96401002       7.46129068      11.07111135      -0.00474029       0.03924952       0.50442228
Li       2.28747113       6.79306230       8.85658000      -0.83215923      -0.23004207      -0.53267519
Li       2.06657202       3.27022352       0.32475122       0.61012991      -0.10510886       0.17603716
Li       4.54150969       5.59620992      13.24593863       0.24385846      -0.46360484       0.16737429