50
Lattice="8.787646 0.0 0.0 0.0 8.787646 0.0 0.0 0.0 12.657546" Properties=species:S:1:pos:R:3:forces:R:3 energy=-213.93771404 stress="0.0038056237750838614 -1.5315227847818564e-06 -0.0006918820407243831 -1.5315227847818564e-06 -0.0003619344349878558 0.002630800209714307 -0.0006918820407243831 0.002630800209714307 0.0015795801705908903" free_energy=-213.93771404 pbc="T T T"
Li       2.15367373       2.16805858       2.56100318       0.21295619       0.02627687      -0.14966494
Li       6.86277383       6.73468317       2.38640069      -0.88852396      -0.52529946       0.08548803
Li       2.61008983       6.43216108      10.17993769      -0.53247676       0.10714887       0.51088965
Li       6.69403908       2.14700048       8.71159350      -0.14909886      -0.03192045      -0.06071558
Li       4.81990748       0.15898143       3.22058094      -0.35336979      -0.44374369       0.06817897
Li       8.68523679       4.12188657       3.13925899      -0.01040854      -0.09409318       0.17611616
Li       8.65447538       4.25447791       9.54553807       0.15496476       0.11947547      -0.08612431
Li       4.73136720       8.69316598       9.12737908      -0.03914731       0.10731975       0.42442213
Li       8.70373004       0.15017094      11.79172631       0.03335816      -0.02155235       0.16363305
Li       0.16869881       0.19079095       5.56564689      -0.18073020      -0.24320300       0.35209662
Li       4.19423623       4.64771224       7.24777679       0.13433065      -0.26931936      -0.39188405
Li       4.20660036       4.55935413       0.66693622       0.24501581       0.04066086       0.62259181
Li       2.04166069       6.76954543       1.95769214       0.51755862       0.18894214       0.02840452
Li       6.66507122       2.55162132       0.28162825      -0.41256777      -0.45317045       0.36719532
Li       2.44402098       2.42549399       6.63833708      -0.28323178      -0.24521091       0.29505928
Li       6.63017952       6.30020921       6.02137374       0.08084517       0.09165140       0.13150210
Li       2.15947138       6.45298200       6.02926901       0.20521710      -0.00805009       0.35303244
Li       6.45993118       2.20284457       4.35607914       0.37811082       0.37534551      -0.11953888
Li       2.47377464       2.20007479      10.48849057      -0.04467592      -0.57597515      -0.03968919
Li       6.72335853       6.33981504      10.52027809      -0.43989568       0.87921564      -0.15496205
Ge       4.63873215       4.33177660      10.18599041      -0.99883886      -0.53474376       0.89013552
Ge       4.19074779       4.24952484       4.06944230       0.86632333       0.54483182      -0.72099732
P        0.03199336       8.60159176       8.61646660      -0.39050473       0.54046119       1.14955677
P        8.68690680       0.06117546       2.53165982       0.57097221       0.08937063      -0.45664258
P        8.68319595       4.19517352       6.33361590       1.04315661      -0.45480332       2.22306600
P        4.28795665       0.03405740       0.12942037      -0.25648401      -0.32159327       0.23844114
S        4.30038334       2.32009215       5.21813182      -0.09545120       0.36106439      -0.45896135
S        4.36678385       6.17927846       5.18589646       0.12687211      -0.19524112       0.47949544
S        2.79813886       4.18652445      11.55898657       0.27572524       0.82097486      -0.55020747
S        6.52454050       4.29299777      11.38474532       0.10081502      -0.23676317      -0.27467758
S        0.19289516       5.72081677       5.16914610      -1.37761364       1.96080699      -1.95202247
S        0.09077735       2.54319528       5.21271249      -0.17414722      -0.30622207      -0.29678733
S        2.61145104       8.61792931      11.65152576      -0.33788130       0.28551137      -0.18122073
S        5.77375232       0.24815311      11.45403931       1.25613490       0.19919409      -0.48557505
S        4.36894210       1.59364004       1.49321880       0.05241006       0.42990882      -0.78521450
S        4.51120776       7.11879065       1.26698441       0.03782953      -0.07436330       0.39448059
S        1.55952904       4.43622919       7.59079780      -0.00350620      -0.34769331       0.22486098
S        7.09886625       4.33697642       7.62933585      -0.26547883       0.07470470      -0.67111637
S        8.65689312       7.33418921       1.11106167      -0.06430864       0.07198038       0.50102726
S        8.77676804       1.79689979       1.46749614      -0.32305481       0.40360391      -0.19987885
S        1.70348922       8.49959013       7.46744774      -0.02979416       0.22870679      -0.27606282
S        6.96817022       8.64101587       7.67276870       0.71498016      -0.00446852      -0.19715052
S        0.10199680       1.63957447       9.76843594      -0.16160180      -0.75277288      -0.36115247
S        0.10354325       7.07907893      10.04470270       0.20428719       0.06664880      -0.34765684
S        7.14146260       8.65898880       3.90870716      -0.16444387      -0.16210013      -0.27366110
S        1.62015764       0.05466882       3.66017751       0.01360152      -0.61437148      -0.26346942
S        4.53764355       6.17868292       8.96409939       0.46958261       0.37016996       0.22088324
S        4.20197366       2.63105469       8.83129009       0.60165203      -0.62420842      -0.31944525
S        6.12774726       4.29849365       2.68754155      -0.41162463      -0.21970887       0.51857326
S        2.39179047       4.56819828       2.80808645       0.04935339      -0.59731526      -0.33403278
50
Lattice="8.787646 0.0 0.0 0.0 8.787646 0.0 0.0 0.0 12.657546" Properties=species:S:1:pos:R:3:forces:R:3 energy=-213.95700124 stress="0.0013792271097406343 0.0008958299237217281 0.0009932035515569045 0.0008958299237217281 0.004216281271553554 0.0045531855260485905 0.0009932035515569045 0.0045531855260485905 0.002490577011420588" free_energy=-213.95700124 pbc="T T T"
Li       2.24556325       1.89197351       2.67071638      -0.25857502       0.15358515      -0.13133123
Li       6.47110915       6.32030594       3.72407951       0.00522258      -0.01687409       0.08302208
Li       2.24221454       6.61014518       9.62719329       0.53158043      -0.05195810      -0.04006088
Li       6.85866086       2.37003946       9.30042634      -0.45490231      -0.20191380      -0.03137181
Li       4.27579885       8.36360298       3.31485688       0.16411569      -0.14826585      -0.22544452
Li       8.72655516       5.01540185       3.01304073       0.44229483      -0.25895698      -0.28164907
Li       8.76743371       4.87282308       9.56220274       0.23947955      -0.43856364      -0.07408934
Li       4.66754613       0.04989898       9.81364894       0.13064943       0.03935521      -0.15768272
Li       0.35995903       0.13245882      12.17492073      -0.13760137      -0.22391195      -0.52586758
Li       8.48874248       8.40978082       5.80322359      -0.03821337       0.28978845      -0.11073664
Li       4.63494906       3.89949735       6.98832747       0.23858235       0.22036984       0.31976172
Li       4.33827743       4.45555358       0.68798256      -0.08122221      -0.19607454      -0.04878273
Li       2.24745716       6.89679784       0.67307665       0.08729441      -0.36589851       0.14314783
Li       6.40314198       2.48692429       0.63614016       0.19879215      -0.22441899       0.14414356
Li       2.36223102       2.26919806       6.78770043      -0.13194260      -0.11818778       0.07915529
Li       6.77488867       6.51670913       8.14458683       0.20705610       0.08249680      -0.13453893
Li       2.25812062       6.28470455       5.97417792      -0.09359120       0.02218596       0.03827321
Li       6.42026366       2.51921204       4.14907548       0.56445444      -0.82744305       0.34682522
Li       2.49233045       2.30696104      10.57995893      -0.22060657      -0.25350591       0.27108479
Li       6.43721063       6.71664556      12.21990122       0.69904461      -0.37990658      -0.41006748
Ge       4.36827072       4.55843705      10.30423429      -0.04307528      -1.55353312      -0.41628118
Ge       4.13826006       4.33189980       3.72422204      -0.05844653       1.02973713      -0.16915542
P        0.19329078       0.01536274       8.87553923      -1.44397550       0.07927532       0.01041008
P        8.65848369       8.60438544       2.33287572      -1.33475689       0.35635440       0.44238952
P        8.75638571       4.20333144       6.33290657       0.90507123      -1.16249240       0.45658099
P        4.60715567       8.74120988       0.06577557      -0.55352018       0.16287907       0.86980720
S        4.25598007       2.54631630       5.05003720      -0.53540996      -0.09567838       0.14109651
S        4.45616564       6.33781831       4.84391058      -0.76615052      -0.70904287       0.29112065
S        2.32793574       4.57299713      11.08787739      -0.22119241       0.64321573       0.80928466
S        6.08484308       4.19377909      11.63435087       0.48952934       0.23508610       0.00469871
S        8.59804612       5.88075281       5.26837316      -0.02086308       0.92170606      -0.96409942
S        0.31827887       2.50611388       5.20397574      -0.60769991       0.77445763       0.25581208
S        2.83263117       8.73830064      11.56223361       0.75508209      -0.08184862       0.25545498
S        6.32869261       0.27385618      11.68410401      -0.67352953       0.17210264      -0.29989842
S        4.45863356       1.42478815       1.55397755      -0.13715132      -0.56741290      -0.63967276
S        4.72943260       6.86927880       0.99769815      -0.63745978       0.98965304       0.44945660
S        1.53822787       4.45180319       7.65238600       0.67568044       0.10089859      -0.32810031
S        7.19225985       4.19722719       7.63790590      -1.07216577      -0.29882415       0.37092467
S        8.57726729       6.99285481       1.08729839      -0.29577545      -0.64709446      -0.34159752
S        8.76830527       1.55308382       1.26866723       0.08055243       0.40190192       0.52909237
S        1.66275075       8.57291161       7.48325170       0.28575560       0.06748991       0.24890938
S        7.10442259       0.08835486       7.93287051       0.57818629       0.30048336      -0.17494995
S        0.25007488       1.67830892      10.12815200       0.13482297      -0.27822414      -0.49536273
S        0.06939296       7.19743929      10.17528149      -0.13035200      -0.02137840      -0.11330471
S        7.00441856       8.58324518       3.69339193       0.65387267       0.46478105      -0.37771167
S        1.51438321       8.30817138       3.39765634       1.23688333       0.15729668       0.88063549
S        4.73816287       6.34403804       9.16132674      -0.37742183       0.50349769      -0.45057091
S        4.21669253       2.47352638       9.13392936       0.77611301       0.72565811      -0.63720508
S        6.19527953       4.20328381       2.69962635      -0.13789725       0.28081437      -0.60589633
S        2.45149866       4.37660624       2.20462428       0.37386680      -0.06699788       0.78105299
50
Lattice="8.787646 0.0 0.0 0.0 8.787646 0.0 0.0 0.0 12.657546" Properties=species:S:1:pos:R:3:forces:R:3 energy=-213.92095551 stress="0.007195158586351031 0.0020341235090377873 0.0060961292489233165 0.0020341235090377873 0.005081344493676937 0.00021599446372348418 0.0060961292489233165 0.00021599446372348418 0.005961684077770811" free_energy=-213.92095551 pbc="T T T"
Li       2.03687520       2.36518789       3.82583188       0.39203461      -0.30581731      -0.09858787
Li       6.21359545       6.62720007       3.25762401       0.47524730      -0.00940260      -0.17601614
Li       1.88506246       6.38188994       9.78660648       0.61466288       0.04181058      -0.10522465
Li       6.68285961       2.26667276       9.35464823      -0.49898811      -0.14823221      -0.10658262
Li       4.22379049       0.17990333       3.26905985       0.04789104       0.38585586       0.03303570
Li       8.76847303       4.04214747       3.25961795      -0.34066295       0.04082500      -0.18125730
Li       8.33215682       4.43620828       9.41318229       0.14661066       0.23799590      -0.05291518
Li       4.25124195       8.66712616       9.50021899       0.01482192       0.20362378      -0.01984334
Li       8.67070607       0.16876692      11.90210214       0.09383838      -0.27477085       0.14195308
Li       8.68102171       8.41832646       5.62678145       0.08613823       0.14918853       0.09729198
Li       4.52818901       4.40735439       7.30761116      -0.41836497      -0.23446885      -0.55051934
Li       4.47933435       4.81869549       0.67087247       0.73263737      -0.14825550       0.83452488
Li       2.24477482       6.56769364       0.98389118      -0.22292254       0.04034285      -0.04269409
Li       6.48683104       2.24076115       0.50308796       0.36884933       0.29499537      -0.00124709
Li       1.86504992       2.30509726       7.55263986       0.34158578      -0.51693958       0.39379023
Li       6.60193225       6.22332856       6.35237844      -0.33807103       0.45541838       0.28961565
Li       2.11423979       6.23503792       4.61168752       0.20830428       0.23731641      -0.24009795
Li       6.78123467       2.32768187       5.25272223      -0.30440821      -0.16893015      -0.11454193
Li       2.82152921       2.03022146      11.56438476       0.04055567       0.18278346      -0.08302840
Li       6.03191702       6.71755517      10.96405432       0.54334292      -0.11290048      -0.24305411
Ge       4.58709453       4.45371300      10.12861198      -0.18839112      -1.54272334       0.57143396
Ge       4.31163654       4.33011292       3.78699170      -0.25236503      -1.19985872       0.23572018
P        8.62411169       8.52749820       8.73928365      -0.02484369       0.56247207       0.48777637
P        0.00632403       0.09390285       2.40237008      -0.53934832      -1.04551645       1.25303706
P        0.08008059       4.41771925       6.44705334       0.07111770      -0.99543610       1.05654900
P        4.47839425       8.71893223       0.11569731      -0.95558282       0.63941801      -0.59948263
S        4.29686758       2.40649053       4.96662954      -0.51562530       0.32513176       0.19533150
S        4.51913887       6.13263618       5.01771679       0.02658549       0.55171360       0.50920365
S        3.04297621       4.50645777      11.71885733      -0.93614239       0.13716396      -0.60582968
S        6.62120092       4.10451603      11.03204483      -0.38744215       0.32755426       0.58950417
S        8.61268019       5.85958364       5.05903418      -0.08370032       0.42833507      -0.29365799
S        0.40368099       2.56323067       5.60952428       0.03982172       0.13445778      -0.76512914
S        2.72794315       8.32532557      11.46243671       1.11811875       0.45276462       1.26076638
S        6.04664555       0.30683261      11.48274485      -0.11228422      -0.66020679       0.09305353
S        4.33276977       1.69418609       1.14706884      -0.72430101      -0.46097245      -0.00628897
S        4.59330344       7.22199496       1.53254403      -0.19673165      -0.22817119      -0.76414742
S        1.61452089       4.63991628       7.82380145      -0.58090140       0.26819504      -0.51513919
S        7.02917652       4.13122432       7.36971072       0.20506007       0.01401132       0.15224828
S        8.52786007       7.22668554       1.26889000       0.04321308      -0.04867146      -0.17755455
S        0.36830149       1.74704053       1.37579298      -0.27671029       1.00015507      -0.63011164
S        1.62516010       8.32244349       7.81262813      -0.14748961      -0.13434376      -0.70832053
S        6.90461929       8.65580011       7.60164532       0.62184259      -0.02046169      -0.18345492
S        0.06084821       1.55707060       9.80919627       0.02873313      -0.32816818      -0.05012074
S        8.42270051       6.97978362      10.11249399      -0.20801358       0.07949759      -0.02936807
S        7.10182065       0.24130322       3.71086377       0.37302277      -0.12957373      -0.26406555
S        1.61398379       8.62840788       3.71392095       0.19153309       0.07300811       0.16865554
S        4.43823014       6.24818977       8.91656524       0.27455462       0.15449590      -0.13122341
S        4.22346323       2.43134700       9.03446737      -0.18185371       0.80303797      -0.14056389
S        6.15496709       4.12577765       2.63229668       0.53570909       0.33883660      -0.72943088
S        2.29294043       4.57288596       2.68732258       0.78268418       0.13433485       0.27110820
50
Lattice="8.787646 0.0 0.0 0.0 8.787646 0.0 0.0 0.0 12.657546" Properties=species:S:1:pos:R:3:forces:R:3 energy=-213.67375963 stress="0.007053134113489619 0.0010743287148582514 0.002066293326853668 0.0010743287148582514 0.0036974699999317334 -0.0020762186932543215 0.002066293326853668 -0.0020762186932543215 0.005639974096918242" free_energy=-213.67375963 pbc="T T T"
Li       2.21989796       2.17109507       2.94982856       0.24632363      -0.21310132       0.59477220
Li       6.74324278       6.27717820       3.31980079      -0.31272744       0.08541517      -0.09418738
Li       2.18437364       6.50740881       9.69694700       0.35023155       0.13487989      -0.15441298
Li       6.68325084       2.18459157       9.54594261      -0.33624867       0.05756077       0.04738279
Li       3.97757998       8.25242370       3.01729366       0.00260736       0.07732536       0.27356345
Li       0.04928832       4.51330810       3.11270422      -0.12015740      -0.20263646      -0.00079415
Li       8.67715981       3.95820252       9.35725872       0.09207210       0.62150712      -0.27107755
Li       4.72026586       0.12590025       9.53666273      -0.11442815      -0.21679287       0.02919288
Li       0.25189181       0.37818100      12.02242667      -0.03872209      -0.31184785       0.11948826
Li       8.43761025       0.00164751       5.67075604       0.26739188       0.13332538      -0.01610707
Li       4.53807528       4.81657635       6.90816318       0.03177153      -0.38688341       0.57877449
Li       4.28020893       4.44099579       0.70545985      -0.02566426      -0.09889269      -0.11630804
Li       2.13918044       6.83071211       0.29334167      -0.03471569      -0.31431264       0.01068602
Li       6.31333971       2.20993576       1.11614468       0.56223619      -0.02679597      -0.45663691
Li       2.26300374       2.35306278       6.59640884       0.35699453      -0.94399865      -0.35141976
Li       7.24780982       6.58780338       7.54528785      -0.43767550      -0.23578899       0.19124020
Li       1.98111117       6.16394375       4.86696807       0.28693641      -0.43774451       0.05920446
Li       6.26781399       1.91005830       4.13633743       0.19857790       0.59701030       0.30905218
Li       2.54469656       2.36206397      10.83881701      -0.00779010      -0.31656624      -0.02187640
Li       6.27142765       6.58232323      11.57460256       0.20050403       0.95542177      -0.05269323
Ge       4.45184080       4.48260916      10.24701281       0.76093119       0.56944199      -0.37195788
Ge       4.39192311       4.36220856       3.82031193      -1.34345632      -1.39704872       1.15167987
P        0.16445376       0.06901624       8.96097981      -0.99431676       0.39938826       0.23727556
P        0.03874886       8.63115235       2.47470327      -0.20332074      -2.24929549       0.85759522
P        8.55960439       4.18641162       6.20366809       0.60584503      -0.50709793       0.07862729
P        4.47529502       0.04214037       0.06666641      -0.66175664      -0.29770148      -1.34183707
S        4.10762062       2.30350600       4.93692583      -0.09081504       0.80970430      -0.20193105
S        4.61618744       6.14831334       5.06035563      -0.06438968       0.66212027      -0.39805899
S        2.57253732       4.71315041      11.44358317      -0.04819369      -0.19780325       0.03178566
S        6.35954999       4.38543475      11.48351165      -0.51122494      -1.06139999      -0.13152854
S        8.37640253       5.93828360       5.07646995       0.03130371      -0.32802171       0.89513053
S        0.00059501       2.57104966       4.95547888      -0.07624767       0.15654639      -0.09699480
S        2.84449589       8.55414744      11.29097443       0.93662208       0.74848866       1.20108442
S        6.23642856       0.49210106      11.71900162      -0.53417811      -0.42762709       0.25397957
S        4.14018087       1.58026744       1.35850087      -0.47808767      -0.32163029       0.05427265
S        4.48899171       6.98520209       1.01985797       0.32226415       0.55548858       0.22681411
S        1.50504906       4.24673969       7.37425415      -0.57730944       1.25389294       0.20259142
S        6.98935697       3.92501676       7.45670857      -0.19659095       0.53766800       0.30673422
S        8.58472853       6.93132239       1.31441654       0.12190959       0.31956949      -0.32925026
S        0.44914731       1.52027471       1.52485811      -0.33237778       0.86843513      -0.79451663
S        1.73850078       8.52888410       7.82066086       0.44628593       0.10868431      -0.68465178
S        7.17428604       0.25802207       7.84517865       0.45854997      -0.13274081       0.19332989
S        0.25415937       1.85165614      10.13714089      -0.09594737      -0.57097211      -0.14809862
S        8.77309972       7.33676944      10.32859576      -0.33326112      -0.36580502      -0.32800357
S        7.02382634       8.61581299       3.55216169       0.23563188       0.28072604      -0.06010942
S        1.57765927       8.16847751       3.81272183       0.06468570       1.35272127      -0.34744428
S        4.65340725       6.40084806       8.95030330       0.06758027      -0.89167576       0.23703127
S        4.24362104       2.56116215       9.09413226      -0.04218667       0.46238743      -0.11079537
S        6.19030441       4.00963845       2.65159007       0.67217115       0.14998773      -0.64372509
S        2.38847155       4.50778611       2.81524556       0.71139454       0.53639169      -0.62492719
50
Lattice="8.787646 0.0 0.0 0.0 8.787646 0.0 0.0 0.0 12.657546" Properties=species:S:1:pos:R:3:forces:R:3 energy=-213.57920834 stress="0.005031270613582529 0.0013647719743333808 0.005390737923567634 0.0013647719743333808 0.0029834844722757296 0.0006251421391356256 0.005390737923567634 0.0006251421391356256 0.006080705094258232" free_energy=-213.57920834 pbc="T T T"
Li       1.78349634       2.37497109       3.40914699       0.37032383      -0.51699690       0.32087336
Li       6.70523911       6.50044697       4.08783549      -0.08296933      -0.07845936      -0.36932069
Li       2.21794412       6.63723820       9.69267065      -0.07940114      -0.24109422       0.02274526
Li       6.69904206       2.25439395       9.56952285      -0.07494676      -0.18818118       0.01738979
Li       4.15162432       8.61301377       3.25278997       0.15431135       0.22801594      -0.25506955
Li       0.12009197       4.52175135       3.14649038      -0.17058674      -0.07360981       0.08632973
Li       0.15294010       3.90613993       9.65034255       0.17652104       0.44360735      -0.11191207
Li       4.34377911       8.63956432       9.69443461       0.20900607       0.06867525      -0.39801697
Li       8.41544095       0.22597458      12.18259462       0.31236810       0.07429518      -0.58964847
Li       8.74766089       0.09740666       5.60473479       0.07612163      -0.07883721       0.15184293
Li       4.62526016       4.18708317       6.77832005       0.15091459       0.04133357       0.50403016
Li       4.40464806       4.33781169       0.75235605       0.01508506       0.03530096      -0.31087835
Li       2.34257183       6.58401380       1.40313302      -0.02790944      -0.00236867      -0.06713031
Li       6.39126126       2.21828894       0.70686952      -0.07447376       0.21102956       0.06881177
Li       2.45265423       2.32087153       7.41818988       0.04478040      -0.44756909      -0.07013702
Li       6.64280886       6.49669500       8.27122937       0.45830526      -0.15849869      -0.38278065
Li       2.22739883       6.55044745       5.64586017      -0.09163393       0.02002922       0.16967620
Li       6.44910304       2.31930539       4.59325409       0.15315108       0.01544497      -0.06408479
Li       2.62853115       2.29523208      11.53885411      -0.01613453      -0.40858257      -0.02367765
Li       6.27659602       6.57032256      12.13566120       0.52682061       0.30377270      -0.25948352
Ge       4.48141333       4.39390059      10.12408539      -0.48382520       0.43495157       1.74958098
Ge       4.38158937       4.48078133       3.90480345      -0.90401911      -0.59996629      -0.11897364
P        8.62418911       8.56689401       8.80342298       0.49631637      -0.46552066      -0.27280710
P        8.72933830       0.04214511       2.29559748       1.32835224      -1.33334744       1.19238502
P        8.77539259       4.32185710       6.51026905      -0.64028190      -0.44648651      -0.55875353
P        4.37009135       8.73094881      12.64751705      -1.13412488       0.20019526      -0.17486009
S        4.11373533       2.55758268       5.02764410      -0.43114884      -0.21130372       0.54153694
S        4.78858181       6.18624961       5.33292057      -0.93589677      -0.05055509      -0.53889935
S        2.62082130       4.62071246      11.40241728      -0.03524459       0.02884405      -0.09774039
S        6.29762081       4.42374792      11.41430816       0.27401076      -1.31248250       0.47098316
S        8.64075777       5.91474676       5.17229644       0.38777529       0.21077340       0.52808199
S        8.78601132       2.67485645       5.27886196       0.42623804      -0.28995764      -0.61571293
S        2.66319331       8.58047935      11.32309624       1.00326054       0.06195205       1.27176025
S        6.03115241       0.17871691      11.45390616       0.12608031       0.26547675       0.15298890
S        3.96112045       1.57097477       1.20755976       0.50165407      -0.37826166      -0.66454219
S        4.80881985       7.10102273       1.20090569      -0.72996390       0.10348361       0.19666919
S        1.73810613       4.55220617       7.48861470       0.18276957       0.31839925       0.41550195
S        7.16533020       3.96639981       7.75881685       0.30666953       0.65596226      -0.40684870
S        8.75915566       7.27273140       1.01522215      -0.41606866      -0.76566299      -0.06015891
S        0.22241857       1.75045822       1.36219700      -0.30195203       1.46881938      -0.72713222
S        1.57106774       8.52619701       7.67337639       0.29718063      -0.12534402      -0.19242807
S        7.02456529       0.07506978       7.55034821       0.06243033      -0.08147319       0.59736738
S        0.19939415       1.46993758      10.03788990      -0.56690148      -0.45402712       0.14285000
S        8.40862244       6.68201793       9.82562032       0.25308264       1.79444680      -0.11373417
S        7.11046831       0.05902978       3.51485180      -0.40824602       0.01582521       0.46986115
S        1.70612156       8.50887102       3.51529443      -0.76069084       0.12138063       0.14629187
S        4.56505459       6.17794986       8.97268678      -0.71190611       1.17976569      -0.86545054
S        4.39589223       2.55510834       9.05228477      -0.38796805      -1.14952776      -0.92528829
S        6.16101272       3.94895185       2.77100440       1.01617175       0.61198119      -0.70802883
S        2.60021348       4.32566892       2.39090298       0.14143814       0.95177160       0.73614729
50
Lattice="8.787646 0.0 0.0 0.0 8.787646 0.0 0.0 0.0 12.657546" Properties=species:S:1:pos:R:3:forces:R:3 energy=-213.82291134 stress="0.0046889241001712165 -0.0005571697579473256 0.0006374631839840664 -0.0005571697579473256 0.0012325333826266752 0.0003880251102962543 0.0006374631839840664 0.0003880251102962543 0.0029882591518589213" free_energy=-213.82291134 pbc="T T T"
Li       2.66295016       2.01739940       3.44694406      -0.42452708       0.18737467       0.01482440
Li       6.73146136       6.44117193       3.13312527      -0.00521882       0.30322194       0.02985910
Li       2.36090198       6.58851386       9.73346934      -0.81554353       0.22192450       0.15316256
Li       6.38885046       2.05503812       8.50816421       0.55223072       0.34555205      -0.01977983
Li       4.35980699       8.44467024       3.08165222       0.10078908      -0.21847344       0.05027653
Li       0.24322016       3.90477688       3.47320113      -0.03822953      -0.05298619      -0.21246375
Li       7.66218880       4.71471207       9.74307642      -0.01650150      -0.29745429      -0.28561048
Li       5.10200937       8.56902835       9.31692950      -0.18112613      -0.14882447       0.25930116
Li       8.68745488       8.77541799      11.81568882      -0.01258610       0.12567001       0.23127608
Li       0.32340488       8.24918009       5.66339986      -0.35092277       0.13470046       0.50528284
Li       3.96036182       4.53429308       7.05006098      -0.04926421      -0.14968815      -0.11679874
Li       4.63259222       3.83658483       0.66583337      -0.67718103       0.15746919       0.63869562
Li       2.22859949       6.58289733       0.36170165       0.37882845      -0.04359442       0.19006599
Li       6.78172160       1.92187839       1.75956218      -0.50606264      -0.07273060      -0.03562614