50
Lattice="8.787646 0.0 0.0 0.0 8.787646 0.0 0.0 0.0 12.657546" Properties=species:S:1:pos:R:3:forces:R:3 energy=-212.75161135 stress="0.007771602854735652 -0.0023709625709700034 -0.006162418582209786 -0.0023709625709700034 0.0059098642291210745 0.004004315358687826 -0.006162418582209786 0.004004315358687826 0.0063536578725740455" free_energy=-212.75161135 pbc="T T T"
Li       2.55154820       2.00014934      11.50557261      -0.22843040       0.14675842      -0.51852524
Li       8.52647936       4.38150421       3.11144948       0.21897653      -0.06481880       0.08488913
Li       0.82181573       4.75196096       9.54490038      -0.01871614      -0.32920260      -0.13397325
Li       6.39503441       2.11580618       9.51024757       0.09740264       0.00733764       0.06527174
Li       2.35607370       6.65333611       4.33900601      -0.34750412       0.06400804      -0.05864583
Li       6.29719215       2.10023448       0.83351029      -0.15466660       0.18737340       0.14909053
Li       4.28339190       0.08782198       9.36925149       0.22262878      -0.20436612      -0.02775920
Li       6.59869751       6.72234558       0.39186294       0.10093524      -0.20631971      -0.40562067
Li       0.05233052       0.14972752      12.19160718      -0.15406507       0.03890407      -0.57975604
Li       8.74399100       0.40157293       5.46129163       0.06187519      -0.19597897       0.34769805
Li       5.01395857       4.25027425       6.95045381      -0.34714995       0.02665642       0.03875090
Li       4.33433732       4.53426865       0.75559613      -0.23907936       0.07143428      -0.11220086
Li       1.95326795       6.77879663       0.08265023       0.76155705      -0.11039283       0.06550525
Li       6.68379286       6.48768916       3.77163164      -0.79196142       0.12164998      -0.13529997
Li       2.07480233       2.43135025       2.56520650      -0.24154191      -0.48940662       0.07248647
Li       6.75567220       6.06798442       9.96693233      -0.06896774       0.54590710      -0.34340916
Li       2.29529640       6.92272553       8.50040083       0.10855872      -0.01639197      -0.00832707
Li       6.54705858       2.61710694       4.44402212       0.21742741      -0.21111266      -0.11512224
Li       2.52820628       2.50347723       6.89523375       0.04299153      -0.18927751       0.16278535
Li       6.38170250       6.70251854       6.79451184       0.22615088      -0.09659079       0.14285523
Ge       4.16960507       4.53509346      10.39128466      -0.70467458       0.12732849      -1.99095105
Ge       4.16238866       4.24259904       3.92225897       0.35747127       0.81134600      -0.44822836
P        0.20796992       0.34563104       8.89946174      -0.67519441      -0.70362001      -1.40031008
P        0.01720489       8.73530757       2.40868341      -1.74116998       2.33850487       0.91509771
P        0.22441214       4.52951744       6.23830509      -0.51263889      -0.46892814       0.21959933
P        4.49396860       8.68798891      12.57733804      -0.41993201       0.53315387      -1.95127463
S        4.28709801       2.45139892       5.12274101      -0.01636150      -0.45109718       0.29172009
S        4.42579000       6.01197820       5.21788841       0.94115864       0.41636214      -0.15915625
S        2.37044976       4.75138520      11.64373833      -0.16222428      -0.51163971      -0.29212556
S        6.00827728       4.40676008      11.42790389       1.43246130      -0.31901006       1.07200016
S        8.59410935       6.16618232       5.10448427       0.24948316       0.56276684      -0.37774021
S        0.18125530       2.82386804       5.07030105       0.26037975       0.48463382      -0.12097026
S        2.93340754       8.27657197      11.24372634      -0.04377104       0.61805913       0.29023563
S        6.28442757       8.67011150      11.32528650      -1.05330953       0.51920957       1.34634048
S        3.78214361       1.63607646       0.82588665       1.28114450       0.21630573      -0.08268320
S        4.53017906       7.17009372       1.14422925      -0.18101451      -0.88514878       1.58968091
S        1.98748617       4.80917662       7.25961602      -0.46538219      -0.09656545       0.01990024
S        7.45197214       4.35938545       7.53081445      -0.45083391       0.37712239       0.89203539
S        0.00715191       7.06060853       1.27521751      -0.66592753      -0.44695808      -0.00137111
S        8.67579421       1.74802817       1.25893307       0.44521039      -0.56991056       0.03794085
S        1.78880206       0.17596374       7.39338919      -0.83371231       0.04301245       1.10632758
S        7.16485119       0.29110879       7.83746540       0.63576391      -0.08481377       0.07827073
S        0.12436162       2.04195911       9.98508401       0.58015742      -0.12117244       0.44696674
S        0.30489924       7.40893825      10.16788568      -0.03548680       0.03900925      -0.99050217
S        7.00780576       0.25575960       3.68359866       1.14843674      -1.16501506      -1.00979360
S        1.69393670       0.13563696       3.44459394       0.63855814      -0.32038218       0.57180930
S        4.64071930       6.25210915       8.73618078      -0.38917392      -0.65366346       0.69308416
S        3.86266868       2.51668480       9.28119142       0.40614942       0.74056550       0.06362583
S        6.04897718       4.22405543       2.44415922      -0.16888238      -0.01517143       0.78508094
S        2.28291145       4.73937187       2.77889005       0.66589294      -0.15353410      -0.29566457
50
Lattice="8.787646 0.0 0.0 0.0 8.787646 0.0 0.0 0.0 12.657546" Properties=species:S:1:pos:R:3:forces:R:3 energy=-213.09838802 stress="0.0013026494475733147 -0.006075804629541628 0.005232148073546525 -0.006075804629541628 0.00022240991122568753 0.0010340923519235514 0.005232148073546525 0.0010340923519235514 -0.0035279534831669417" free_energy=-213.09838802 pbc="T T T"
Li       2.60310304       2.47417333      10.72169775      -0.02605384      -0.49376211       0.04318999
Li       0.28707113       4.68107313       3.45439075      -0.18703815       0.03624231      -0.35949032
Li       8.76393034       4.05328300       9.75624052       0.15864473       0.73166141      -0.32576870
Li       6.75596650       2.26919516      10.41607307      -1.29750103      -0.14101565       0.02679563
Li       2.00513352       6.73673728       5.87104297      -0.07508159       0.22624571      -0.37770042
Li       6.14887277       2.22163405       1.72645978       0.20117045      -0.52942183      -0.03443432
Li       4.23549879       0.11219618       9.30484167       0.19318705       0.18278147      -0.00115155
Li       6.18795521       6.04633913       0.94124955       1.02770137      -0.31096863      -0.07190332
Li       8.71504976       0.00511924      12.06987120       0.10788876      -0.19678800       0.07189574
Li       0.06925140       0.42757706       5.45351369       0.11367555      -0.14234807       0.34316776
Li       4.58276952       4.37734423       7.01011313       0.09197213       0.28137361      -0.33706013
Li       4.16008216       4.14202539       0.40994171      -0.21540343       0.08831306      -0.09323366
Li       2.14579877       6.52882360       1.49283287      -0.60158880      -0.18568557       0.29248335
Li       6.19921350       6.64976314       3.82730826       0.28770500      -0.06264079      -0.05140469
Li       2.36349495       1.76165860       2.56305029       0.24345638       0.41237182      -0.37819023
Li       6.51280609       6.77046568      10.23314559      -0.25961386      -0.18731665       0.40850169
Li       2.10023052       6.81622813       9.43712189       0.62609208      -0.32964479      -0.08507598
Li       6.65903349       2.30558375       6.06887776       0.37961184       0.25926923      -0.21998965
Li       2.41301922       2.63407545       6.58828662       0.21296365      -0.35956364      -0.09711913
Li       6.67469571       6.56194257       7.17514601      -0.45804272       0.12826478       0.39211354
Ge       4.51980217       4.59525114      10.08378996      -0.02312815       1.11925803       0.37352656
Ge       4.37677321       4.34741878       3.94660563       0.19907703       0.08691019       0.17683692
P        8.72984227       0.18855793       8.63635717      -0.40426513      -0.47489649      -1.26039633
P        8.62583380       0.16320970       2.59260907       1.39840239      -2.82110919      -0.19928721
P        0.09416833       4.56612492       6.35152000      -0.43322307      -0.85738449       0.63922636
P        4.23229209       8.59541607      12.26990119       0.17134781       1.63251302       0.20374098
S        4.51135407       2.49493300       5.22714893      -0.76747303       0.65891059       0.00437667
S        4.27310139       6.35010661       5.13434987       0.44055773      -1.07113728      -0.36936081
S        2.54793296       4.81209790      11.01396618      -0.55715599      -0.10824115       0.78974044
S        6.30248961       4.38996645      11.50637561      -0.14297188       0.40328361      -0.21970360
S        8.21754044       6.26963110       5.48177597       0.78119748       0.25396151      -1.04928023
S        0.46217350       2.92716418       5.13555842      -0.45967372       0.24355775      -0.06901817
S        2.51238869       8.62712233      11.09773028       0.89839939       0.06734979       0.05680899
S        6.13102558       8.78280787      11.38409333      -0.92477158      -0.09319862      -0.16119686
S        4.02201348       1.62525773       0.64278044      -0.09922249      -0.08143403       0.17371000
S        4.21121976       7.07682885       0.92054915       0.31065578      -0.26739883       0.29091500
S        1.87297180       4.85832856       7.26503877       0.04427853       0.11113124       0.78144766
S        7.35135878       4.09753627       7.65816139      -0.15050193       0.19700185       0.09978744
S        8.58718635       7.07969986       1.47363403      -0.34427007       0.50461563      -0.03612304
S        8.70722340       1.65936276       1.33760832      -0.05262332       1.27089839      -0.92291852
S        1.62919872       8.56345373       7.49303446       0.00059612       1.30139449       0.05503191
S        6.98139774       0.52025676       7.58609400       0.51875317      -0.90598929       0.01154803
S        0.05735002       1.76673619       9.89872246       1.39909210       0.07492308       0.84069361
S        8.66590415       7.26915826       9.72722006      -0.57682103      -0.43335158       0.49486424
S        7.11020503       0.14442426       3.83861980      -1.51542319       0.43591628       0.55763626
S        1.61907500       8.71253105       3.63833274      -0.16673629      -0.15152643       0.14139042
S        4.62190670       6.54042531       8.91363135       0.42802395      -0.61738017      -0.62902148
S        4.43296159       2.85918444       8.84479076       0.02263062      -1.35576888      -0.18575764
S        6.37969488       4.22643363       2.80546672      -0.66617895       1.03064909       0.02712005
S        2.68920694       4.16634354       2.43634306       0.12894388       0.48598636       0.25835114
50
Lattice="8.787646 0.0 0.0 0.0 8.787646 0.0 0.0 0.0 12.657546" Properties=species:S:1:pos:R:3:forces:R:3 energy=-212.49650911 stress="-0.003947712416900597 0.001401048705154093 -0.00019265350398502083 0.001401048705154093 -0.005798993774706814 -0.0032982237360082195 -0.00019265350398502083 -0.0032982237360082195 -0.0028923686563882734" free_energy=-212.49650911 pbc="T T T"
Li       2.77906712       2.23342777      10.28322314      -0.35672028      -0.01961058       0.08048818
Li       8.06809922       4.99044283       2.96903740       0.25324448      -0.05764816       0.15026537
Li       0.42184304       4.30947996      10.12499382      -0.06416916       0.27398377      -0.39432059
Li       6.72604298       2.42492095       9.57973572       0.60438542      -0.07308717       0.39184266
Li       2.02167890       6.61938917       6.53302504       0.17755645       0.04233655       0.01840867
Li       6.00544010       1.65687049       2.12826624       1.12301134       0.33324749       0.76243786
Li       4.40749420       0.21212297       9.72590291       0.34495912       0.01472021      -0.63643710
Li       6.16739229       6.15318908       0.05710870       0.76005938       0.51806763       0.49634782
Li       8.74507812       0.17183627      11.62500086       0.05950558      -0.41654248       0.67941352
Li       0.11228511       8.75619598       5.53641859      -0.20249762       0.04962356      -0.07657575
Li       4.02923306       4.63507394       7.36138168       0.13892256      -0.31021512      -0.66171318
Li       3.88826937       4.51725964       0.86694444       0.21727467      -0.14852807      -0.16191298
Li       2.17138515       6.79794359       2.01646353       0.13791071      -0.51255528      -0.10758330
Li       5.46013231       7.01609312       3.34389810       0.39354430       0.01608276      -0.32223160
Li       1.92021032       2.11120506       2.07884156       0.00920717      -0.42091085      -0.12003059
Li       6.42583142       7.20803570       9.36151355       1.21262256       0.12769165       0.61765829
Li       2.48124510       6.78505800      10.26668631      -0.18186757      -0.44290412       0.15959549
Li       6.47780631       2.46392861       6.43935198      -0.03222566      -0.18863896      -0.33319552
Li       1.88559236       2.35210054       5.75333704       0.55577222       0.01735744       0.41953700
Li       6.22898042       6.30942939       6.63781015       0.43870531      -0.06027378      -0.05473964
Ge       4.64215467       4.43712193      10.14794549       1.11707363       0.35008315       0.79787260
Ge       4.03992138       4.39356930       4.06257900       1.08683401       0.67581066      -0.74048951
P        0.19167886       0.29564629       8.73052982       0.88824275      -2.07901270      -1.88398996
P        8.75302944       8.71645781       2.29821000      -0.39234440      -1.40673339       0.42586343
P        8.68628217       4.45147514       6.33641993       1.55649511      -0.60082916       1.38018370
P        4.47972092       0.07205017      12.56106335      -0.79000921      -0.85862663      -0.87700046
S        4.27311212       2.86536690       5.53774637      -0.25890995      -0.87439842       0.12427207
S        4.38748526       6.33205582       5.23627413      -1.02802258      -0.09578682       0.11155546
S        2.85172057       4.30066780      11.35687733      -1.10149812       0.50409656       0.36183642
S        6.58561912       4.61468897      11.27547805       0.02925775      -0.92530950      -1.00625492
S        8.68066379       6.12904151       5.27960218      -0.41546349       1.18423772      -0.32030716
S        8.58129327       2.97476343       4.98513449      -0.46770597      -0.76322401      -0.41332006
S        2.75007448       0.05867599      11.23122321       0.61083551      -0.09859973       1.24044876
S        6.20202133       0.19301625      11.33411413      -0.87438967      -0.60355756       0.32272430
S        4.22687161       1.76314371       0.90041188      -0.55589057       0.30128429       0.23955773
S        4.44168904       7.02138733       1.12247548      -0.19190593       1.52995046      -0.71107613
S        1.66383101       4.34955383       7.57515928      -0.98456825       0.11405760      -0.50113180
S        7.22150848       4.23120014       7.72201364      -0.46869591       0.83500536       0.04456842
S        0.04001279       7.03389206       1.05495887      -0.59591642      -0.05641260       0.25664274
S        8.34278249       1.49873039       1.17625651       0.45281829       1.36683598      -0.82748062
S        1.78294061       0.30409763       7.36525679      -0.08861855      -0.06418309       0.21082935
S        7.27084777       0.32392546       7.64303739      -1.02438283      -0.16775286      -0.14578383
S        0.28441278       1.83637679       9.95089383       0.05583642       0.84507184       1.01016563
S        0.16238788       7.16420125       9.63285577      -0.17824240       1.05785764       0.05178784
S        7.19301128       8.75459443       3.67999632       0.00304371      -0.28364705       0.00247027
S        1.78917562       8.67932772       3.25187331      -0.39811885       0.82865670       0.49673090
S        4.42805738       6.37820783       9.05737918      -0.48951563       0.02950263      -1.01674242
S        4.63465371       2.62631613       8.90605847      -0.69646906      -0.15005224      -0.44902172
S        5.74280672       4.43917305       2.48079231       0.00601146       0.01364992       0.40826288
S        2.33477016       4.30654102       2.62457596      -0.42593072       0.63034238       0.48091985
50
Lattice="8.787646 0.0 0.0 0.0 8.787646 0.0 0.0 0.0 12.657546" Properties=species:S:1:pos:R:3:forces:R:3 energy=-213.16089938 stress="-0.0006660378363698566 -0.0020698396524748493 -0.0031757728916674507 -0.0020698396524748493 0.0052160163439578765 0.002255554040100496 -0.0031757728916674507 0.002255554040100496 0.005006308153463726" free_energy=-213.16089938 pbc="T T T"
Li       2.48891443       2.00354682       9.94111220       0.08290066       0.53119057       0.09158012
Li       8.41912104       5.06340612       3.16962229       0.21465544      -0.12565005      -0.02333365
Li       0.22278001       4.41597428       9.19014734       0.36269807      -0.03528655       0.01303638
Li       6.69932880       2.65740788       9.81903435      -0.54170590      -0.12493469       0.19895592
Li       2.30294060       6.33040163       7.31423498       0.13514775       0.22070022      -0.23693502
Li       6.26705219       1.98507448       2.60582380       0.46428681       0.31300736       0.29621171
Li       4.32167291       8.60293645       9.60065877      -0.02659907       0.29362007       0.09371040
Li       6.24753422       6.38485841       0.55422242       0.49109995       0.05544315      -0.15740663
Li       8.49971570       0.02658078      11.62343981      -0.01063861       0.04579068       0.53358164
Li       0.03798012       0.32974939       5.32790552       0.21278611      -0.26054833       0.44433526
Li       4.53206067       4.25289086       7.26855491      -0.11668146       0.51989605      -1.13129728
Li       4.41508612       4.30480968       0.79397343      -0.31045578      -0.26747760      -0.26355087
Li       2.15520753       6.63112973       1.99033367      -0.61004514       0.15017144       0.30494952
Li       4.93308691       7.46750501       3.64616409       0.23843731       0.18526522      -0.37218529
Li       1.98000164       2.09396598       1.85144976       0.09231060       0.10923572      -0.26965867
Li       6.60819371       6.23951022       9.46527113       0.43533077       0.35098399       0.23510238
Li       2.48801642       6.48497799      11.46675318      -0.05723980       0.47048284      -0.05546365
Li       6.58309048       2.41697226       6.13580580       0.36805393      -0.19615509       0.40546033
Li       2.20299853       2.10368328       5.62118453       0.14022017       0.13777708      -0.12859505
Li       6.46213398       6.78149496       6.34304008       0.01014822      -0.25818426      -0.11538219
Ge       4.52695109       4.64589504      10.27739422      -0.70157869      -2.28363914       0.18170513
Ge       4.42532003       4.45622487       3.77375102      -1.06401892      -0.45197816       1.04854829
P        0.19180619       0.01412544       8.62022349       0.52396705      -0.69990844      -1.60494399
P        8.60266183       0.05013106       2.38149804      -0.70579095      -0.03935568      -0.81061545
P        8.72946519       4.46692910       6.26299515       0.74947724      -1.66683804      -1.10272455
P        4.37808591       0.17276837       0.05811978       0.53480306       1.13356291       0.66304506
S        4.66764412       2.54301030       5.03522104      -0.85959053       0.51934023      -0.73169590
S        4.25205823       6.08568695       5.39956280       0.14352276       0.02862337      -0.34094033
S        2.82282582       4.14755361      11.55286399      -0.66797472       0.41570276      -0.08748303
S        6.37082304       4.57179243      11.43256022       0.76121040       0.41377615      -0.27231155
S        8.58265632       6.21226869       5.32395067       0.38284834       0.31800606      -0.49118913
S        8.55152116       2.74021211       4.91487018      -0.00250147       1.60860218       0.64155976
S        2.67170977       0.38371590      11.68914893      -0.77452508      -0.70165143      -0.86667504
S        5.95625328       0.04972094      11.40873796      -0.13340720      -0.35332611      -0.07488140
S        4.43725146       1.83512904       1.30063500      -0.24718800      -0.84620242      -0.39288429
S        4.20156363       7.22122921       1.19255133       0.27222556       0.14947135      -0.39366411
S        1.76827974       4.00485850       7.13917124      -0.63224138       0.41951161       0.74879661
S        7.15194521       4.45208861       7.57486398      -0.09813791      -0.18506879       0.58686875
S        8.57272285       7.06941823       1.27645225       0.33671250      -0.13830744       0.08678772
S        8.30241389       1.57366985       0.99521145       0.19346718      -0.25490867       0.95683455
S        1.89792081       0.00928134       7.37263955      -0.38482337       0.26604364       0.52865764
S        7.32484091       0.06719737       7.41137873      -0.44874617      -0.42735920       0.26923030
S        8.78587634       1.71655504       9.67092220       0.92592619       0.36543251       1.08733497
S        0.37819594       7.10587536       9.84516725      -0.59098816       0.22389493      -0.29376605
S        7.04903449       0.03246930       3.82555645       0.33511660      -0.13683812      -0.77053915
S        1.64122822       0.21167690       3.27215892      -0.08775128      -0.27183413       0.36218533
S        4.25235526       6.30477466       8.94672438      -0.07043857       1.00245596      -0.51748627
S        4.56056270       2.77363363       8.88819044      -0.16358242      -0.44454701       0.69127900
S        6.14408631       4.80958103       2.42490355      -0.22216809      -0.31605034       0.35583187
S        2.37739613       4.36093884       2.56827368       1.13529754       0.26516156       0.66862942
50
Lattice="8.787646 0.0 0.0 0.0 8.787646 0.0 0.0 0.0 12.657546" Properties=species:S:1:pos:R:3:forces:R:3 energy=-213.34701031 stress="0.0062650100242930724 0.0011921891039991888 0.002909888316602754 0.0011921891039991888 0.00012100163457833925 0.00721834463183299 0.002909888316602754 0.00721834463183299 0.00318359566216434" free_energy=-213.34701031 pbc="T T T"
Li       2.23763785       2.07058180       9.06135301      -0.20559483       0.13610677       0.18765790
Li       8.61848794       4.65336006       2.94272831       0.12422748      -0.10331677       0.26267299
Li       0.46806324       4.13798536       9.03311352       0.09163788       0.07186943       0.72635641
Li       6.03358412       2.04054878      11.34784035       0.07953530       0.38268415      -0.01475082
Li       2.08741778       6.55647296       7.54227206       0.01446400      -0.05510520      -0.22605321
Li       6.44845724       2.38348667       3.78135719      -0.25512644       0.40785478      -0.42735445
Li       4.75897676       0.11980567       9.44186707      -0.11955953      -0.10870126       0.06167261
Li       6.63330862       6.38403527       0.40461833      -0.61939045      -0.25343451       0.14414267
Li       0.13255180       0.18226641      11.95303560       0.09192979       0.19905194      -0.12916657
Li       0.33627290       0.14724597       5.39973494      -0.20528532       0.10947854       0.22900512
Li       4.75221185       4.47961644       7.30392642      -0.17123939      -0.18366859      -0.70333619
Li       3.96303203       3.99719699       0.54079353       0.19915592       0.14571574       0.08654441
Li       2.32652901       6.81762757       3.06707794       0.09689555      -0.61905428      -0.14057083
Li       5.60275044       7.04532189       3.31196273       0.03092576       0.15579223      -0.68773216
Li       2.32471560       1.43766205       1.56865613      -0.12628980       0.31662186      -0.14115524
Li       6.71597076       6.59680149       9.73826376      -0.56443100      -0.17753066      -0.07158550
Li       2.35017376       6.62517109      10.99070035      -0.03219215       0.94553290      -0.01399857
Li       6.33888408       2.26014230       7.36803550       0.11932597      -0.26583249      -0.19496130
Li       2.37872921       2.46313121       4.57101655      -0.17654889       0.09034595       0.15084635
Li       6.62752653       6.61883519       5.84562371       0.35664557       0.04990375       0.19162997
Ge       4.21614857       4.57178048      10.00742408       0.22654943      -2.09533534       1.60132546
Ge       4.40147994       4.69268926       4.01728777       0.21478861      -0.86246810      -0.35252958
P        8.76201059       0.06627440       8.56377602      -0.01131794       1.77958379      -0.49226916
P        8.62083662       0.23086359       2.45893665       0.89323731      -1.26315122      -0.36015147
P        0.05402610       4.34698819       6.19716920       1.22247695      -0.62117600      -0.43793385
P        4.46183639       8.62355016      12.59541352      -1.29393563       0.80022243       1.01498562
S        4.70636213       2.87931000       5.23573403      -0.05828210      -0.16252478       0.65948341
S        4.22139559       6.57985944       5.16830475       0.13804634      -0.06242243      -0.06260732
S        2.21108527       4.41175815      10.91072883      -0.05626060      -0.76174099       0.41819911
S        5.90841658       4.43520526      11.49836617      -0.12617006       0.41918535      -0.23106836
S        0.35253769       6.16192594       5.31895917      -0.47598533       0.07735629      -0.42389024
S        8.48378511       2.79949005       4.85014670       0.67291177       0.68534780       0.73899385
S        2.86362361       0.32330857      11.33397920       0.30764584      -0.75789399      -0.04653878
S        6.21960752       8.44203676      11.58551982       0.13593893      -0.19779438      -0.93838976
S        4.59465191       1.42991961       1.20358339       0.65147082       0.55962233      -0.18938178
S        4.10081265       7.00646845       1.12016713       0.16271143      -0.50139946      -0.47993499
S        1.81105449       3.94250620       7.22768116       0.27176439       0.23273856      -0.56850101
S        7.44637028       4.38255539       7.63549932      -1.61462701       0.57439385       0.20255148
S        8.72070110       7.32521026       1.09521467       0.43461475       0.59861832       1.38310472
S        8.69579278       1.88434811       1.32533418      -0.27176206       0.21509875      -0.25568356
S        1.72703598       0.37463018       7.46596718      -0.74296491      -0.75251462      -0.21194308
S        6.95945657       8.47327069       7.57654072       0.11512100       0.73248846      -0.12972210
S        8.64041752       1.81938904       9.73155071      -0.32016978      -1.01079882       0.14700443
S        0.14570242       7.23225340       9.66870283       1.05143315      -1.43765673       1.23234887
S        7.04048227       0.11461876       3.81688679       0.86128140      -0.43386801      -0.42000278
S        1.82190099       0.19940988       3.49305259      -1.52577219       0.14911191      -0.17867503
S        4.29963358       6.31124808       8.82477006       0.16943143       1.46713140      -0.86511688
S        4.49331761       2.54231467       8.89449061       0.54362442       0.47989779       0.17234691
S        6.16256831       4.68240666       2.59267375       0.05539651       0.36207012       0.10480186
S        2.61829863       4.12161442       2.78249163      -0.34660282       0.54575337      -0.25561980
50
Lattice="8.787646 0.0 0.0 0.0 8.787646 0.0 0.0 0.0 12.657546" Properties=species:S:1:pos:R:3:forces:R:3 energy=-213.08814271 stress="0.006432777064774406 0.0008661895835847663 -0.0041761440737158465 0.0008661895835847663 -0.0028218461818164116 -0.0007807722592877321 -0.0041761440737158465 -0.0007807722592877321 0.00516403635066699" free_energy=-213.08814271 pbc="T T T"
Li       2.07361380       2.86367853       9.88032826       0.08801789      -0.66036314      -0.39397670
Li       8.57941851       4.49682449       2.77672991       0.69780838      -0.13537228       0.36753537
Li       1.81828356       5.65257279       9.27577020      -0.11565145      -0.04148049       0.03698535
Li       6.55918395       2.49844903      10.63565859       0.06006198      -0.25265697      -0.02286536
Li       2.09362625       6.60374663       6.50794145       0.02573935      -0.53027596      -0.29034255
Li       6.34517103       2.01884506       3.02984995       0.23571027       0.09535583       0.23003049
Li       4.53469441       8.65273085       9.45796583      -0.23165831       0.64078730       0.11948586
Li       6.63728380       6.74910862       1.19831773      -0.50973153      -0.16399428      -0.14808287
Li       0.42393265       0.23575716      11.65372704      -0.58481394      -0.06862637       0.23093376
Li       8.75054403       8.42874711       5.55359324      -0.16510806       0.16079975       0.13123359
Li       4.66029694       4.87354701       7.00680369      -0.03687681      -0.05871387      -0.01040939
Li       4.08946473       3.85618401       0.86968986       0.47207611       0.50195029      -0.82597653
Li       2.29924953       6.48347864       2.71015021      -0.26527610      -0.18201839       0.20217431
Li       4.01851951       8.39939594       2.88672880       0.50354016       0.44017996       0.54545112