10
Lattice="5.860523344057018 0.01986271923493685 -0.09102505444383828 -2.87505037303567 4.048939251939404 2.919684409170122 0.005719223386401398 -0.04082796996718914 5.755981677110917" Properties=species:S:1:pos:R:3:forces:R:3 material_id=wbm-3-54368 energy=-83.64537811279297 stress="-0.002568041207268834 -0.0011473638005554676 0.0014964111614972353 -0.0011473638005554676 0.0005713858408853412 0.0013705751625820994 0.0014964111614972353 0.0013705751625820994 0.000776326865889132" pbc="T T T"
Na       2.93425765      -0.01207145       2.83351794      -0.00064433       0.00087681      -0.00050269
Eu       3.03375034       2.13250425       5.75806922      -0.00147056       0.01309886      -0.00888601
Eu      -0.06856710       1.93227884       2.80092902      -0.01287728       0.00719238      -0.00536622
W        0.00008030       0.00000919      -0.00000842      -0.00242798       0.00367588      -0.00259412
O       -1.92532607       4.00254581       4.63508163      -0.00590298       0.00367080      -0.00406843
O        1.66102552       0.45031240       4.84274145      -0.00723122      -0.01255173       0.03175778
O        1.36197106       3.53263613       3.77321685       0.02776274      -0.01672735      -0.01141840
O        4.91734403       0.04033944       3.95621702       0.00771035       0.00490502       0.00816679
O       -0.41344601       1.83468288       6.11920972      -0.00348531      -0.01104248      -0.00441763
O        3.39680046       2.18817594       2.45206805      -0.00143368       0.00690173      -0.00267097
