10
Lattice="6.2307632765159475 -4.308266481067857e-08 3.575427254031218 2.8066058979416173 6.292278298299908 2.325805483298007 -0.03122124102070514 0.07002078531449878 7.271180743041092" Properties=species:S:1:pos:R:3:forces:R:3 material_id=wbm-1-49436 energy=-39.87863540649414 stress="-0.0012736594071611762 0.00015343948325607926 -0.0004895625752396882 0.00015343948325607926 -0.0003733842459041625 -0.00026745247305370867 -0.0004895625752396882 -0.00026745247305370867 -0.0007015244918875396" pbc="T T T"
Tl       2.10478775       4.75324469       3.54893825       0.01123377       0.02458524      -0.01943002
Tl       0.67068360       1.60905439       6.04809795      -0.01110666      -0.02458525       0.01950294
As       5.07861092       2.12079794       5.58316955      -0.00340561       0.00746981       0.00635915
As       3.92747572       4.24150113       7.58920894       0.00376497      -0.00747021      -0.00615398
S        0.81941804       1.35082146       2.15694709       0.00520296       0.03049988       0.03639230
S        5.05108491       5.01147761       9.21612474       0.03404756      -0.03049729      -0.01386660
S        5.06683278       4.41622331       5.60409637      -0.00157043      -0.00237913       0.00223022
S        3.93960099       1.94607571       7.56848076       0.00113151       0.00237945      -0.00247926
S        8.19190795       5.02290663      11.00608213      -0.00308109      -0.02611628      -0.04014230
S        3.94957374       1.33939239       3.96549436      -0.03621693       0.02611383       0.01758757
