5
Lattice="4.082180275401733 -1.3534460582831365e-07 1.6784258078914376 1.3104366732271417 4.662459132918871 2.6162699703773904 0.12838844836399743 0.3619699626694716 5.491186811222284" Properties=species:S:1:pos:R:3:forces:R:3 material_id=wbm-3-77676 energy=-34.366737365722656 stress="-0.0016446097288280725 -4.75184824608732e-05 -0.0016653453931212425 -4.75184824608732e-05 0.002323195803910494 0.00011551010538823903 -0.0016653453931212425 0.00011551010538823903 0.001721036504022777" pbc="T T T"
Er       4.27288893       3.51716291       7.01804056       0.00246335      -0.00468579      -0.00599580
Er       1.24811649       1.50726606       2.76784202      -0.00246557       0.00468611       0.00599651
Zn      -0.00000002      -0.00000001       0.00000011       0.00000305      -0.00000019       0.00000071
Os       2.48577939       1.51272502       5.56110916       0.01069141       0.03890046      -0.02600407
Os       3.03522599       3.51170395       4.22477334      -0.01069223      -0.03890060       0.02600271
