6
Lattice="5.012403897962602 9.361424194283209e-06 4.947587545852398e-07 1.0744123882052634e-05 5.38001339609809 -3.106606328447804 4.882206289711783e-07 0.00025834532749375856 6.2125422856673165" Properties=species:S:1:pos:R:3:forces:R:3 material_id=wbm-2-25583 energy=-12.502400398254395 stress="-0.0011518091196194291 7.625450848536275e-08 8.095913273109545e-08 7.625450848536275e-08 -0.0002279016189277172 -3.2170887607207987e-06 8.095913273109545e-08 -3.2170887607207987e-06 -0.00022399850422516465" pbc="T T T"
Ac       2.50620573       1.79344245       1.03533974      -0.00000439       0.00000605      -0.00000930
Mg       0.00004696       4.48231939       2.58756264       0.00004209       0.00072207       0.00041685
Mg       2.50623451       3.58669206      -2.07107700      -0.00002263      -0.00000181       0.00001087
Mg      -0.00003169       4.48469791      -0.51870777      -0.00003583      -0.00071910       0.00041667
Mg       2.50617772       0.00019796       4.14169333       0.00002532      -0.00000772      -0.00000081
Mg       0.00000632       1.79356738       4.14304840      -0.00000456       0.00000052      -0.00083428
