10
Lattice="5.554706251468618 -5.2769416654237324e-09 1.347123402668606e-08 -1.1656046133211297e-08 4.883692791372289 -2.8196140819421687 1.3938139238293609e-08 -6.446734286032515e-09 5.639228162886993" Properties=species:S:1:pos:R:3:forces:R:3 material_id=wbm-2-6091 energy=-66.64081573486328 stress="-0.002569082658737898 -1.6269082081521447e-08 6.566164056920343e-09 -1.6269082081521447e-08 0.0025907952804118395 -1.1610741257328527e-09 6.566164056920343e-09 -1.1610741257328527e-09 0.002587462542578578" pbc="T T T"
K        2.77735312      -0.00000000      -0.00000003       0.00000046      -0.00000017       0.00000009
K        0.00000001      -0.00000003      -0.00000000       0.00000065       0.00000017      -0.00000046
B        2.77735319       1.62789230       2.81961408      -0.00000137       0.00000808       0.00000004
B        2.77735312       3.25580049       0.00000005       0.00000060      -0.00000839      -0.00000002
Ir       1.31639447       2.44184631      -1.40980707       0.00516250       0.00000005      -0.00000003
Ir       1.31666887       0.00000006       2.81961409       0.00514548       0.00000050      -0.00000047
Ir       1.31696346       2.44184637       1.40980701       0.00510795      -0.00000033       0.00000054
Ir       4.23803744       0.00000008       2.81961415      -0.00514608      -0.00000080      -0.00000026
Ir       4.23774280       2.44184636      -1.40980701      -0.00510928       0.00000097       0.00000092
Ir       4.23831167       2.44184639       1.40980703      -0.00516114      -0.00000012      -0.00000034
