4
Lattice="3.470214981369774 -8.710867677329715e-08 1.0695752512253807 1.570277344336143 3.0946115922791573 1.069575244183773 -0.001222042051261824 -0.0007502787552710036 6.168271433019801" Properties=species:S:1:pos:R:3:forces:R:3 material_id=wbm-2-28424 energy=-27.00847625732422 stress="0.0026582160498946905 -7.598396769026294e-05 0.0004017176106572151 -7.598396769026294e-05 0.002735456917434931 0.00024659023620188236 0.0004017176106572151 0.00024659023620188236 0.0014789929846301675" pbc="T T T"
Ca       0.00000006      -0.00000001       0.00000002       0.00000052       0.00000133      -0.00000060
Nd       2.51963513       1.54693058       4.15371101      -0.00000139       0.00000062       0.00000082
N        3.79407502       2.32937335       6.18312743       0.01244014       0.00763783      -0.04037015
N        1.24519520       0.76448792       2.12429443      -0.01243931      -0.00763979       0.04037001
