9
Lattice="3.52695590775776 0.0003620651097368722 1.1797398539068074 1.7623804296238077 5.534402552596615 0.5898993846587276 0.007433126501495354 8.193360171348948e-05 5.8381191011181395" Properties=species:S:1:pos:R:3:forces:R:3 material_id=wbm-4-7551 energy=-62.42802047729492 stress="-0.000991982058621943 -4.574966442305595e-05 -0.0010770540684461594 -4.574966442305595e-05 0.0020933763589709997 -8.1831676652655e-06 -0.0010770540684461594 -8.1831676652655e-06 0.0017153853550553322" pbc="T T T"
Y       -0.00000705      -0.00002117       0.00001809       0.00001329       0.00003778      -0.00003614
Co       4.19533490       5.53462206       5.03933046      -0.01583352       0.00000796       0.04687110
Co       1.10140264       0.00027081       2.56843434       0.01584370      -0.00006607      -0.04692342
Co       3.53379602       3.44831534       7.01777865      -0.00017122       0.04947848       0.00001345
Co       2.38239541       3.60430092       4.59747807      -0.00956768       0.02959004       0.02810125
Co       1.15067734       3.60410191       2.42047550       0.00939163       0.02970672      -0.02816840
Co       0.61988967       1.93034727       4.00783470      -0.00942399      -0.02964180       0.02808565
Co       2.91361881       1.93057581       3.00999442       0.00959025      -0.02969586      -0.02797918
Co       1.76301422       2.08651117       0.58994926       0.00015746      -0.04941729       0.00003558
