12
Lattice="5.731842677190029 3.457648702952678e-08 -1.0481021607782671e-05 4.157189608592748e-08 5.749415621278325 0.0029034630898155064 3.013600674277733e-06 0.0029138271269688403 5.775630658255671" Properties=species:S:1:pos:R:3:forces:R:3 material_id=wbm-2-39104 energy=-55.24345016479492 stress="-0.0006955838180147111 2.0262231004153364e-08 -2.806652332765225e-07 2.0262231004153364e-08 -0.0016498161712661386 -0.0003113452985417098 -2.806652332765225e-07 -0.0003113452985417098 -0.0012870021164417267" pbc="T T T"
Cu       2.91439676       2.89068028       1.47444511       0.00444259       0.02026509       0.02987148
Cu       2.90093711       0.00793695       4.30474139      -0.00528609       0.01805953      -0.03309422
Cu       0.03501439       5.74439082       1.47378745      -0.00528543      -0.01805582       0.03309548
Cu       0.04847735       2.86164847       4.30408343       0.00444261      -0.02026718      -0.02987129
P        2.27446418       5.12016628       2.10624592      -0.02679677      -0.01285821       0.00363668
P        5.15503647       3.50076522       2.10359544      -0.01118252       0.00230130       0.00027308
P        2.28911471       2.25156422       3.67492448      -0.01117885      -0.00230875      -0.00027377
P        5.14038450       0.63216126       3.67227391      -0.02679643       0.01286449      -0.00363647
S        3.43945990       0.57083266       0.85523508       0.01667912       0.01729637      -0.01080043
S        0.59148031       2.30368266       0.84524642       0.02214303      -0.02618273      -0.01845521
S        0.57354135       5.18149682       4.92329245       0.01667858      -0.01730029       0.01079890
S        3.45740485       3.44864546       4.93328101       0.02214020       0.02618609       0.01845562
