10
Lattice="4.2886136062322375 -1.7394563879368488e-06 -9.018094140606842e-07 -3.07430161649354e-06 7.6010159605396455 1.1547425421495428e-05 -1.5942429333683466e-06 -7.329168958362224e-06 7.6010020682608515" Properties=species:S:1:pos:R:3:forces:R:3 material_id=wbm-4-14446 energy=-45.36798095703125 stress="-0.0016568241408094764 -8.689441699516465e-08 -3.4021919503857134e-08 -8.689441699516465e-08 -0.00032806978560984135 1.4698561301429436e-07 -3.4021919503857134e-08 1.4698561301429436e-07 -0.000328134250594303" pbc="T T T"
Nd       2.14430549       2.42565024       1.37484385      -0.00000002      -0.00271716       0.00272260
Nd       2.14430322       6.22615542       2.42564862      -0.00000009      -0.00270213      -0.00270330
Nd       2.14430576       1.37485062       5.17534458      -0.00000072       0.00269976       0.00271169
Nd       2.14430364       5.17535865       6.22615213       0.00000003       0.00270899      -0.00271839
Hg       0.00113544       7.60100822       7.60100255      -0.00113236      -0.00000092       0.00000301
Hg      -0.00114278       3.80050015       3.80050586       0.00113173       0.00000753      -0.00001422
Ge      -0.00000251       4.69672592       0.89622512       0.00000162       0.00120708       0.00119593
Ge      -0.00000115       0.89621742       2.90426842       0.00000157       0.00121008      -0.00120549
Ge      -0.00000328       6.70478956       4.69672332      -0.00000062      -0.00120975       0.00121262
Ge      -0.00000232       2.90428017       6.70477504      -0.00000114      -0.00120354      -0.00120454
