5
Lattice="4.343553707657829 4.171969723268561e-08 0.8030924181978851 2.097445711569799 3.8034518117592078 0.8035687436332913 0.035276768190878376 0.021080434017861107 11.956875381282417" Properties=species:S:1:pos:R:3:forces:R:3 material_id=wbm-2-47446 energy=-23.72549819946289 stress="0.0009029247448779643 -3.973199272877537e-05 0.0003611045249272138 -3.973199272877537e-05 0.0009469992946833372 0.00021495448891073465 0.0003611045249272138 0.00021495448891073465 -0.0009833865333348513" pbc="T T T"
Pr       3.99676369       2.35988155       2.67872307       0.00446597       0.00276567      -0.02417978
Pr       2.47951584       1.46465259      10.88480429      -0.00447450      -0.00276773       0.02417964
Si       0.03527956       0.02108149      11.95687179       0.00000308       0.00000036      -0.00000222
I        1.48052323       0.87380101       4.14021094      -0.00003428      -0.00002447       0.00020317
I        4.99575322       2.95073212       9.42331606       0.00003974       0.00002616      -0.00020090
