12
Lattice="3.7896302889333375 -5.367361879353445e-08 -1.0007405128568843 -1.1069128796548746e-07 6.423321414944709 -2.558313973938258e-07 -0.012936574138406752 -3.199267966300956e-07 7.647084030345169" Properties=species:S:1:pos:R:3:forces:R:3 material_id=wbm-4-12109 energy=-89.3048324584961 stress="0.003046755911782384 4.4485074113254086e-07 -0.0008913389756344259 4.4485074113254086e-07 -0.0024797595106065273 1.912645757329301e-07 -0.0008913389756344259 1.912645757329301e-07 -0.00012520213203970343" pbc="T T T"
La       0.45077197       4.81767758       1.71365432      -0.00354529      -0.00006056      -0.01119541
La       3.32592171       1.60601634       4.93268878       0.00354390      -0.00005916       0.01119485
Fe       1.88272566       3.21219446      -0.49774222      -0.00866302      -0.00000963       0.00203613
Fe       1.90690470       0.00053362      -0.50299828       0.00866283      -0.00000779      -0.00203417
Fe       2.55437316       0.42637011       1.99488425       0.00394860       0.04676767       0.01255776
Fe       1.22765367       5.99654829       4.65146232      -0.00332994      -0.04683363      -0.01306280
Fe       1.22232563       3.63803100       4.65146068      -0.00388496       0.04676948      -0.01253241
Fe       2.54903465       2.78488737       1.99487938       0.00326368      -0.04683272       0.01303430
Fe       0.27422892       1.60594087       1.04509236       0.00439189       0.00035565       0.01504069
Fe       3.50246473       4.81760130       5.60125073      -0.00438986       0.00035634      -0.01503936
Co       0.87153538       1.60540244       3.30915647      -0.00593565      -0.00021990      -0.02410958
Co       2.90515808       4.81706250       3.33718687       0.00593788      -0.00022572       0.02411000
