7
Lattice="3.5143093539376165 -1.8791983636187552e-08 -1.9801755114884504e-08 -1.879198105192377e-08 3.514309302221622 3.25450741320049e-09 -4.278775022544072e-08 6.807646408990825e-09 7.855101380240169" Properties=species:S:1:pos:R:3:forces:R:3 material_id=wbm-3-25526 energy=-51.12163543701172 stress="0.0014553130604326725 -1.4146943172477222e-08 2.325949211012812e-08 -1.4146943172477222e-08 0.0014553186483681202 -7.111230493350718e-10 2.325949211012812e-08 -7.111230493350718e-10 -0.0030135337729007006" pbc="T T T"
Fe      -0.00000002       1.75715465       1.84250225      -0.00000054       0.00000020       0.00471655
Fe      -0.00000007       1.75715465       6.01259908       0.00000091       0.00000091      -0.00471505
Fe       1.75715464       0.00000001       1.84250217       0.00000075      -0.00000002       0.00471607
Fe       1.75715465       0.00000001       6.01259905      -0.00000062      -0.00000043      -0.00471515
Fe       0.00000004       0.00000002       0.00000015      -0.00000015      -0.00000041      -0.00000242
Ni       1.75715466       1.75715464      -0.00000007      -0.00000018       0.00000018       0.00000134
Sb       0.00000002      -0.00000001       3.92755078      -0.00000018      -0.00000041      -0.00000143
