9
Lattice="4.218265575188507 0.00011133308550531015 2.8707209954067108e-08 0.0001581075725970421 5.950196744490009 -3.435353194586984 4.710625279024044e-08 2.5443203814751834e-09 6.870706387428543" Properties=species:S:1:pos:R:3:forces:R:3 material_id=wbm-4-1047 energy=-52.510379791259766 stress="-0.0025618188083171844 -3.48434696206823e-06 9.653966515088541e-09 -3.48434696206823e-06 -0.0003214625467080623 5.25094145942262e-09 9.653966515088541e-09 5.25094145942262e-09 -0.00032369393738918006" pbc="T T T"
Ho       0.00000011       0.00000002       3.99489648       0.00000032      -0.00000093      -0.00323867
Ho       0.00003273       3.45968606      -1.99744991       0.00005307      -0.00280298       0.00161964
Ho       0.00012534       2.49051069       1.43790330      -0.00005402       0.00280263       0.00162231
Al       2.10931693       4.55962448       2.63247198      -0.00001923       0.00128806       0.00074061
Al       2.10910673       1.39068357      -0.80288123       0.00001997      -0.00128861       0.00073988
Al       2.10913278       0.00005564       1.60575479       0.00000056      -0.00000047      -0.00148305
Si       2.10827012       1.98345793       3.43535814       0.00179437       0.00000119       0.00000019
Si       2.11015361       3.96685015       0.00000499      -0.00179471       0.00000050      -0.00000053
Ir       0.00000006       0.00000003       0.00000111      -0.00000031       0.00000065      -0.00000036
