8
Lattice="4.23175124568512 -3.9820516818969886e-08 6.371427824832947e-08 -2.115875650755399 3.664804212916428 -2.0625031106881742e-08 2.6924096629924256e-07 8.610403281717998e-08 18.272106635942457" Properties=species:S:1:pos:R:3:forces:R:3 material_id=wbm-3-79190 energy=-39.002559661865234 stress="0.0012744358973577619 2.9908291399038944e-09 -4.7929078483832654e-09 2.9908291399038944e-09 0.0012744253035634756 8.065043743954448e-09 -4.7929078483832654e-09 8.065043743954448e-09 0.0009329699678346515" pbc="T T T"
Cs       2.11587555       1.22160146      13.70407982       0.00000062       0.00000010      -0.00000025
Cs      -0.00000013       2.44320292       4.56802735       0.00000046      -0.00000017      -0.00000093
Zr       0.00000018      -0.00000006      -0.00000026      -0.00000062      -0.00000036      -0.00000074
Zr       0.00000014       0.00000008       9.13605357      -0.00000125       0.00000035      -0.00000451
Te       2.11587582       1.22160138       7.43296909       0.00000020       0.00000007      -0.01324391
Te       0.00000037       2.44320279      16.56902199      -0.00000059       0.00000043      -0.01324333
Te      -0.00000001       2.44320287      10.83913758       0.00000068      -0.00000021       0.01324812
Te       2.11587581       1.22160139       1.70308425       0.00000050      -0.00000022       0.01324536
