4
Lattice="4.253154711321435 1.3169634493396017e-08 2.455560004497147 1.4177182532777244 4.009912707720045 2.4555599979387415 2.0798148436885074e-10 -7.885308334426278e-09 4.911120008634061" Properties=species:S:1:pos:R:3:forces:R:3 material_id=wbm-2-19357 energy=-26.48087501525879 stress="-0.002243294846266508 1.455433218389146e-09 -7.038480215326715e-11 1.455433218389146e-09 -0.0022433199919760227 -2.809767352118797e-08 -7.038480215326715e-11 -2.809767352118797e-08 -0.00224325037561357" pbc="T T T"
Gd       4.25315478       3.00743457       7.36668002       0.00000036      -0.00000141       0.00000035
Au       0.00000000       0.00000000      -0.00000002      -0.00000063       0.00000092      -0.00000034
Au       2.83543644       2.00495632       4.91111996       0.00000003       0.00000021       0.00000074
Au       1.41771822       1.00247818       2.45556005       0.00000026       0.00000028      -0.00000074
