7
Lattice="3.663926370550854 -2.331642936336277e-08 2.9387295050083736e-08 -2.331642479650941e-08 3.6639263076162134 4.1008535660834235e-08 5.4382112910136736e-08 7.739604330367613e-08 7.660881651727559" Properties=species:S:1:pos:R:3:forces:R:3 material_id=wbm-3-20255 energy=-25.68496322631836 stress="-0.0015582238556817174 3.799837333673395e-09 -8.037978282970926e-09 3.799837333673395e-09 -0.0015581994084641337 -5.7297584454829575e-09 -8.037978282970926e-09 -5.7297584454829575e-09 -0.00025235136854462326" pbc="T T T"
Zn       1.83196330       1.83196317       0.00000034      -0.00000010      -0.00000019      -0.00000236
Cu      -0.00000004       1.83196332       1.83948346       0.00000026      -0.00000042       0.04597283
Cu      -0.00000004       1.83196322       5.82139769      -0.00000010       0.00000031      -0.04597046
Cu       1.83196318      -0.00000005       1.83948389      -0.00000014       0.00000015       0.04597197
Cu       1.83196324      -0.00000001       5.82139780       0.00000008       0.00000002      -0.04597029
Cu      -0.00000009      -0.00000002       0.00000014       0.00000011      -0.00000007      -0.00000073
Sb       0.00000011       0.00000002       3.83044093      -0.00000011       0.00000019      -0.00000096
