7
Lattice="3.767410923617867 1.0631435747813361e-07 1.3959445583334709 1.4672033548540189 5.370906806258667 1.8220392323753838 -0.017423145562775216 0.031395762196583694 5.828786826612941" Properties=species:S:1:pos:R:3:forces:R:3 material_id=wbm-4-5281 energy=-52.7700080871582 stress="0.0002786104450933635 0.00032494624610990286 0.0011781449429690838 0.00032494624610990286 -0.0008371634176000953 -0.0008767673862166703 0.0011781449429690838 -0.0008767673862166703 -0.0024642322678118944" pbc="T T T"
Dy       2.36054391       0.90928358       5.19663419       0.01471110       0.01618633      -0.03408168
Dy       2.85912323       4.49301916       3.85105519      -0.01104763      -0.01618727       0.03544166
Si       1.12166090       2.16690877       2.74820299      -0.01146184      -0.02707329       0.02841649
Si       4.09136312       3.23539391       6.29702540       0.00982783       0.02707367      -0.02902250
Ir       1.78370218       3.74564457       6.73938096      -0.00343160       0.04778370       0.01005439
Ir       3.42681038       1.65665807       2.30491683       0.00395774      -0.04778391      -0.00986096
C        0.00836966      -0.00000001       0.00310212      -0.00255561       0.00000060      -0.00094737
