11
Lattice="3.7700609431855403 -0.0003360074746710552 -0.6939653537863176 -0.13148441373960634 3.767767350932817 -0.6939653977414999 0.25955223769840646 0.2687437801201904 11.98704598418813" Properties=species:S:1:pos:R:3:forces:R:3 material_id=wbm-2-29311 energy=-79.776611328125 stress="0.0007252057548612356 3.2109994208440185e-05 0.0002822787209879607 3.2109994208440185e-05 0.000727444130461663 0.0002923387219198048 0.0002822787209879607 0.0002923387219198048 0.00220013246871531" pbc="T T T"
Yb       0.84542251       0.87553338       4.59327895      -0.00167672      -0.00186069      -0.00972545
Yb       3.05253427       3.16080709       6.00583621       0.00180388       0.00174189       0.00972880
Yb       0.00000787      -0.00000752       0.00000038      -0.00000372       0.00000138      -0.00000223
Zr       2.25981744       2.33983511       1.69855152      -0.00103765      -0.00106761      -0.00479942
Zr       1.63832189       1.69633024       8.90056407       0.00102261       0.00107292       0.00478688
N        2.17244059       0.29739774       1.21366404       0.00329115       0.00345189       0.01862810
N        0.22170429       2.18150006       1.21393178       0.00329716       0.00338440       0.01847330
N        1.72566131       3.73871760       9.38518316      -0.00326668      -0.00341219      -0.01846740
N        3.67648351       1.85470408       9.38545114      -0.00332880      -0.00340884      -0.01862402
N        2.63758365       2.73086826       3.75044565       0.00545397       0.00574883       0.02999126
N        1.26066645       1.30518946       6.84866932      -0.00555515      -0.00565204      -0.02998986
