8
Lattice="4.416713201798569 -8.971199816391646e-08 -1.4441946951458612e-08 -9.039621539162021e-08 4.930330597076316 -2.8465279525056237 -1.870714992780766e-08 -7.951227883875563e-07 5.693055580178019" Properties=species:S:1:pos:R:3:forces:R:3 material_id=wbm-1-22489 energy=-53.167518615722656 stress="0.0028032795526087284 -1.655113934795338e-09 -2.4215329741394953e-09 -1.655113934795338e-09 -0.0028188033029437065 -3.277623861208667e-08 -2.4215329741394953e-09 -3.277623861208667e-08 -0.00281886151060462" pbc="T T T"
Ir       3.31253931       1.64344244       2.84653004      -0.00000158      -0.00000038       0.00000205
Ir       1.10418264       3.28688603       0.00000230       0.00000227       0.00000060       0.00000034
Pt       1.10418262       0.82775149       1.43371234       0.00000283       0.00153217       0.00265182
Pt       1.10418261       3.27482433       2.84653009       0.00000195      -0.00306431      -0.00000212
Pt       1.10418268       0.82775179       4.25934796       0.00000049       0.00152965      -0.00265157
Pt       3.31253924       4.10257686       1.41282039      -0.00000182      -0.00153007      -0.00265336
Pt       3.31253931       1.65550412       0.00000279      -0.00000193       0.00306250      -0.00000109
Pt       3.31253931       4.10257684      -1.41281551      -0.00000221      -0.00153016       0.00265392
