12
Lattice="4.0491990987821245 8.19563548692825e-08 -6.523560407516039e-07 1.6168826109285618e-07 8.437862833498459 1.0594352957930585e-06 -1.05961607017757e-06 -1.0799619434619691e-05 8.566426111294934" Properties=species:S:1:pos:R:3:forces:R:3 material_id=wbm-2-18299 energy=-54.84815216064453 stress="-0.000508866214659065 4.275790388419409e-08 -8.444911969718305e-08 4.275790388419409e-08 -0.0013189393794164062 6.560279075529252e-08 -8.444911969718305e-08 6.560279075529252e-08 -7.59752219892107e-05" pbc="T T T"
Yb       1.00478233       0.22118796       6.81378100      -0.00411676       0.03617978       0.01769847
Yb       1.01981601       4.44013205       6.03586125       0.00411617       0.03617560      -0.01769548
Yb       3.04441582       3.99771896       2.53057229       0.00411637      -0.03617796       0.01769563
Yb       3.02938148       8.21666350       1.75265275      -0.00411505      -0.03618535      -0.01769658
Fe       3.01013216       3.60537772       8.17573622      -0.00558870       0.00375403      -0.01681374
Fe       3.06366521       7.82431515       4.67390729       0.00559085       0.00375554       0.01680847
Fe       1.03906572       0.61353590       3.89252639       0.00558827      -0.00375513      -0.01680795
Fe       0.98553336       4.83247239       0.39069668      -0.00558493      -0.00375940       0.01681378
Pb       3.02262779       6.31788397       7.68750893      -0.00292313       0.03500525      -0.02671048
Pb       3.05117008       2.09895732       5.16215118       0.00291842       0.03499917       0.02669922
Pb       1.02657053       6.33889342       3.40428212       0.00292004      -0.03499687      -0.02669898
Pb       0.99802861       2.11996576       0.87892570      -0.00292161      -0.03499486       0.02670761
