10
Lattice="3.4379976871083167 1.858609926770997e-09 4.209426198636561e-09 -1.7189988367332671 2.977393275812485 1.9627671884298995e-08 1.5299575916088458e-08 9.105572052723029e-08 12.615792023806081" Properties=species:S:1:pos:R:3:forces:R:3 material_id=wbm-3-43791 energy=-84.89228820800781 stress="-0.0034210796002298594 2.0503938102933716e-08 2.742969407165674e-09 2.0503938102933716e-08 -0.0034209666773676872 -2.248325614573332e-08 2.742969407165674e-09 -2.248325614573332e-08 -0.0013050900306552649" pbc="T T T"
Ti       1.71899882       0.99246452       5.10950248       0.00000022      -0.00000004      -0.00096528
Ti       0.00000005       1.98492895      11.41739862      -0.00000019      -0.00000023      -0.00096310
Ti      -0.00000002       1.98492890       7.50628958       0.00000105       0.00000169       0.00096872
Ti       1.71899885       0.99246446       1.19839354       0.00000035      -0.00000200       0.00096455
Se       0.00000004       0.00000003       9.46184408       0.00000005      -0.00000023      -0.00000316
Se      -0.00000004      -0.00000001       3.15394794       0.00000025       0.00000141      -0.00000023
N        0.00000005       1.98492892       5.45871848       0.00000021       0.00000003      -0.01854682
N        1.71899883       0.99246446      11.76661458       0.00000027      -0.00000067      -0.01855241
N        1.71899885       0.99246449       7.15707350      -0.00000208      -0.00000208       0.01854843
N        0.00000004       1.98492886       0.84917742      -0.00000015       0.00000210       0.01854956
