6
Lattice="4.218047831758255 -8.758284403557058e-05 2.435692629164423 1.4062658021040106 3.976885972745663 2.4359535783317554 -6.789806308128154e-05 -7.807511708176994e-05 4.870883361229633" Properties=species:S:1:pos:R:3:forces:R:3 material_id=wbm-5-14487 energy=-24.85744857788086 stress="-0.0013289303751662374 9.691575542092323e-06 1.5318315490731038e-05 9.691575542092323e-06 -0.0013164818519726396 1.2086531569366343e-05 1.5318315490731038e-05 1.2086531569366343e-05 -0.001301829470321536" pbc="T T T"
Cd       0.00001575       0.00005018       0.00002855       0.00001805       0.00001355       0.00000072
Cd       1.40606818       0.99423057       2.43565828       0.00000256       0.00000862      -0.00006529
Ni       1.40410600       2.48625380       4.87123876       0.04179759      -0.01469786       0.00008713
Ni       2.81203939       0.49490646       4.87112499      -0.00002495       0.04428818       0.00006808
Ni       3.51618006       2.48623808       6.09087796      -0.02090161      -0.01483440      -0.03626412
Ni       3.51622790       2.48626376       3.65190430      -0.02089166      -0.01477809       0.03617348
