10
Lattice="4.63423482917337 7.010569710413854e-08 -6.374290409589746e-08 1.6943911596826825e-07 7.427649550137961 -2.981658974093639e-07 -1.667635231258039e-07 -2.981658732270874e-07 7.427648007193975" Properties=species:S:1:pos:R:3:forces:R:3 material_id=wbm-2-49138 energy=-46.39989471435547 stress="0.0018899786518886685 1.1310473446712876e-08 -7.548289993053459e-09 1.1310473446712876e-08 -0.0012753698974847794 -2.324989800683852e-08 -7.548289993053459e-09 -2.324989800683852e-08 -0.001275436719879508" pbc="T T T"
Sr       2.31711746       6.15281610       4.98865713       0.00000126      -0.00047776       0.00047452
Sr       2.31711717       2.43899116       6.15281445       0.00000089      -0.00047442      -0.00047275
Sr       2.31711728       1.27483340       2.43899028       0.00000081       0.00047518      -0.00047375
Sr       2.31711756       4.98865833       1.27483329       0.00000030       0.00047396       0.00047248
Sn      -0.01013404       3.71382467       3.71382407      -0.00011576       0.00000024      -0.00000089
Sn       0.01013407      -0.00000035      -0.00000003       0.00011657       0.00000056       0.00000031
Pt       0.00000018       0.98437018       4.69819375      -0.00000156      -0.00511244      -0.00511313
Pt      -0.00000016       4.69819432       6.44327778      -0.00000052      -0.00511266       0.00511317
Pt      -0.00000002       2.72945476       0.98436982      -0.00000084       0.00511468      -0.00511237
Pt       0.00000016       6.44327924       2.72945398      -0.00000114       0.00511273       0.00511240
