6
Lattice="3.530870710498507 -3.4710637299928774e-08 6.674235943200934e-08 -6.759095308318584e-08 6.3667337700742275 -0.08358552673330934 1.1707557515201421e-07 0.008741441792515016 5.8984868028889945" Properties=species:S:1:pos:R:3:forces:R:3 material_id=wbm-4-33053 energy=-30.507537841796875 stress="-0.0013398814480751753 -1.843843477900009e-08 -2.5392886016106786e-08 -1.843843477900009e-08 0.0012454928364604712 -7.919159543234855e-05 -2.5392886016106786e-08 -7.919159543234855e-05 0.002199949696660042" pbc="T T T"
Cr       1.79023915       0.00437087       2.94924333      -0.02142661       0.00000111       0.00000047
S       -0.00979133       5.07144585       3.81376772      -0.00633361       0.00152688       0.01126846
S        1.95622114       1.37193385       4.86170232       0.00959401       0.00730742       0.00924794
S        1.95622101       5.00354117       0.95319913       0.00959315      -0.00730756      -0.00924939
S       -0.00979118       1.30402947       2.00113380      -0.00633359      -0.00152702      -0.01126943
S       -0.38679255      -0.00000016      -0.00000031       0.01490664      -0.00000054       0.00000206
