4
Lattice="3.676832740681751 -1.4379468615699937e-08 2.1228203775915606 1.2256109034327312 3.4665511411909278 2.122820375343519 -2.911141735349217e-09 -2.378223814394277e-09 4.245640752476151" Properties=species:S:1:pos:R:3:forces:R:3 material_id=wbm-4-2887 energy=-31.021835327148438 stress="-0.0017153641674667597 -5.852279372220437e-08 3.0502882442107193e-09 -5.852279372220437e-08 -0.0017153761582449079 6.152173437357078e-09 3.0502882442107193e-09 6.152173437357078e-09 -0.001715401653200388" pbc="T T T"
Ti       2.45122183       1.73327554       4.24564074      -0.00000246       0.00000072       0.00000005
Al       0.00000003       0.00000003       0.00000001       0.00000109      -0.00000012      -0.00000013
Ni       3.67683269       2.59991334       6.36846114       0.00000008      -0.00000039      -0.00000001
Os       1.22561091       0.86663777       2.12282037       0.00000128      -0.00000022       0.00000008
