5
Lattice="4.72836928158024 5.944342756389012e-09 2.849587436486085e-08 5.9443410703812295e-09 4.72836932799539 -2.1043945721635148e-08 2.849587520848342e-08 -2.10439401152682e-08 4.728369278655985" Properties=species:S:1:pos:R:3:forces:R:3 material_id=wbm-3-45540 energy=-31.157529830932617 stress="-0.001954823499545455 3.093442835222504e-09 -1.693563511651064e-08 3.093442835222504e-09 -0.0019548428244888783 6.2809939471719645e-09 -1.693563511651064e-08 6.2809939471719645e-09 -0.0019548346754163504" pbc="T T T"
Tm       2.36418463       2.36418464       0.00000003      -0.00000008       0.00000001       0.00000023
Tm       2.36418463       0.00000002       2.36418460      -0.00000007      -0.00000007      -0.00000029
Tm       0.00000006       2.36418468       2.36418467       0.00000016       0.00000011       0.00000031
Sn      -0.00000001      -0.00000001       0.00000003      -0.00000000       0.00000005      -0.00000015
N        2.36418467       2.36418464       2.36418460       0.00000002      -0.00000009      -0.00000008
