7
Lattice="2.7176350970322556 3.718103677885192e-05 -0.00014847644323158542 -1.3590500009679831 5.217704794288901 -3.456678844108252 0.00029112420100717496 -0.25058167650379176 6.099741949446102" Properties=species:S:1:pos:R:3:forces:R:3 material_id=wbm-3-69260 energy=-56.042198181152344 stress="0.0038098555523902178 1.2239352997767128e-07 -1.111523943109205e-06 1.2239352997767128e-07 -0.0014192385133355856 -0.0009235925390385091 -1.111523943109205e-06 -0.0009235925390385091 0.000692090077791363" pbc="T T T"
V       -0.01276596       3.66391178       0.90461025      -0.01750112      -0.01029065       0.02943000
V        1.34610839       1.30324850       1.73830712      -0.01750240       0.01029674      -0.02942629
Fe       1.37923530       2.06651129      -0.56565394       0.00880049       0.00370367      -0.00513395
Fe       0.00338544       0.00000123       0.00000009       0.01467671      -0.00000122      -0.00000169
Fe       0.02056089       2.90064898       3.20856441       0.00883173      -0.00370764       0.00513541
Si       1.34930998       4.28039435      -1.31408858       0.00134502       0.00582278       0.00938066
Si      -0.00920536       0.68676490       3.95700454       0.00134956      -0.00582367      -0.00938414
