5
Lattice="3.0834668441950606 1.589552602247685e-07 -6.139412587163443e-08 1.651580188026208e-07 3.899539028458576 -0.9160179852977242 -1.3072731686121287e-07 -0.39953581204581695 7.056721068434559" Properties=species:S:1:pos:R:3:forces:R:3 material_id=wbm-5-12877 energy=-44.397483825683594 stress="-0.0010881107300519943 -8.944602392091383e-09 -2.219332451147693e-08 -8.944602392091383e-09 0.002531316364184022 -0.0007445660303346813 -2.219332451147693e-08 -0.0007445660303346813 -0.0005152084631845355" pbc="T T T"
Ta       1.54172858       2.39404336       1.43282013       0.00002232      -0.00054495      -0.00163681
Ta       1.54172854       1.10596000       4.70788293       0.00002272       0.00054307       0.00163963
Mn      -0.00000261       0.61301984       2.60917516       0.00001264       0.00191398       0.00881909
Mn      -0.00000260       2.88698332       3.53152798       0.00001247      -0.00191178      -0.00881919
In       0.00001501       0.00000006      -0.00000007      -0.00007015      -0.00000038      -0.00000279
