6
Lattice="3.966476248898583 5.216129599271066e-09 -2.8224659441523216e-08 5.21612938627921e-09 3.9664762246897305 5.9309779625391343e-08 -5.358192545106794e-08 1.1858035549620115e-07 7.2180474239244266" Properties=species:S:1:pos:R:3:forces:R:3 material_id=wbm-3-75154 energy=-33.95756912231445 stress="0.0019130813889205456 -1.8582816396772728e-09 -1.506716529320329e-08 -1.8582816396772728e-09 0.0019131102599203587 2.04394479119685e-09 -1.506716529320329e-08 2.04394479119685e-09 4.6136432501953095e-05" pbc="T T T"
Ti       2.97485726       2.97485723       5.44231883      -0.00000048      -0.00000018       0.00337027
Ti       0.99161904       0.99161908       1.77572882      -0.00000020       0.00000010      -0.00337232
Se       2.97485718       2.97485724       2.72262875      -0.00000028      -0.00000027       0.04929368
Se       0.99161900       0.99161908       4.49541852      -0.00000023       0.00000021      -0.04929426
Se       2.97485712       0.99161912       0.00000009       0.00000029       0.00000012      -0.00000010
Se       0.99161904       2.97485714      -0.00000007       0.00000087       0.00000000       0.00000259
