6
Lattice="3.965632361196661 -5.1067944622827144e-08 4.4628613554745245e-08 -5.106794085952418e-08 3.965632288279055 2.4522614209358986e-08 7.625656944923911e-08 4.547475918158778e-08 6.802757140160763" Properties=species:S:1:pos:R:3:forces:R:3 material_id=wbm-1-44704 energy=-41.53546905517578 stress="0.0017376370960846543 1.7409288455283445e-09 1.465128818267658e-08 1.7409288455283445e-09 0.0017375820316374302 -2.703698953610001e-08 1.465128818267658e-08 -2.703698953610001e-08 0.0007868027896620333" pbc="T T T"
Tb       2.97422416       2.97422418       5.71718019       0.00000134       0.00000040       0.03884274
Tb       0.99140799       0.99140818       1.08557693       0.00000001       0.00000070      -0.03884249
S        0.99140815       0.99140801       3.79210376      -0.00000017      -0.00000021      -0.03442333
S        2.97422429       2.97422421       3.01065331      -0.00000013      -0.00000026       0.03442277
O        2.97422442       0.99140800       0.00000010      -0.00000054       0.00000136       0.00000067
O        0.99140809       2.97422423       0.00000018      -0.00000057      -0.00000199      -0.00000046
