6
Lattice="3.9236023580636203 -1.628297436951541e-08 -5.927184786098862e-10 -1.6282975875255645e-08 3.9236023475349064 -9.445408753101176e-09 -2.5342251010768782e-09 -2.2400102781130837e-08 8.807998929534397" Properties=species:S:1:pos:R:3:forces:R:3 material_id=wbm-5-2133 energy=-34.243350982666016 stress="0.0015152674168348312 -1.0552960727494565e-09 -9.610206852528336e-09 -1.0552960727494565e-09 0.0015152579871937633 2.923495667772613e-09 -9.610206852528336e-09 2.923495667772613e-09 -0.0012895897962152958" pbc="T T T"
Tb       2.94270179       2.94270176       6.35763496      -0.00000047      -0.00000036       0.04677881
Tb       0.98090056       0.98090052       2.45036375       0.00000047       0.00000039      -0.04677728
As       2.94270173       0.98090055       0.00000013      -0.00000035       0.00000018      -0.00000082
As       0.98090061       2.94270178       0.00000011       0.00000033      -0.00000020       0.00000026
Se       2.94270180       2.94270180       3.31109472      -0.00000081      -0.00000048      -0.00983710
Se       0.98090055       0.98090051       5.49690418       0.00000081       0.00000048       0.00983614
