6
Lattice="4.331937643189806 3.4421082146776537e-08 1.8577011261548773e-10 3.4421082773123606e-08 4.33193757584517 -8.186174790451499e-08 -1.8084445476059282e-09 -1.5435132694566395e-07 8.13959019951959" Properties=species:S:1:pos:R:3:forces:R:3 material_id=wbm-3-75627 energy=-31.28553009033203 stress="-0.0003855678078252822 -1.1180929959664354e-08 -1.1391962928541943e-08 -1.1180929959664354e-08 -0.00038560430402867496 3.743898968622261e-09 -1.1391962928541943e-08 3.743898968622261e-09 0.0015642567304894328" pbc="T T T"
V        3.24895324       3.24895314       6.04441943      -0.00000010      -0.00000016       0.02685373
V        1.08298449       1.08298433       2.09517072       0.00000012       0.00000009      -0.02685394
Bi       3.24895332       3.24895312       3.12201631      -0.00000008      -0.00000008       0.00894588
Bi       1.08298443       1.08298439       5.01757382      -0.00000012       0.00000023      -0.00894573
Bi       3.24895318       1.08298429      -0.00000005       0.00000048       0.00000048       0.00000059
Bi       1.08298436       3.24895325      -0.00000006      -0.00000024      -0.00000058      -0.00000048
