5
Lattice="3.977027384856557 8.103829600137859e-09 1.8936074500377923e-09 8.103831607655509e-09 3.9770273910362435 -5.086475389226178e-09 1.8936067708978706e-09 -5.086477811755312e-09 3.977027371596136" Properties=species:S:1:pos:R:3:forces:R:3 material_id=wbm-1-39473 energy=-33.521339416503906 stress="-0.0004364022461231798 -9.795392053035812e-09 8.711400489858079e-09 -9.795392053035812e-09 -0.0004364191845525056 1.1315098191744255e-08 8.711400489858079e-09 1.1315098191744255e-08 -0.00043643114622682333" pbc="T T T"
Rb       0.00000001       0.00000001       0.00000000       0.00000003      -0.00000001      -0.00000001
Tc       1.98851368       1.98851367       1.98851368       0.00000054      -0.00000011       0.00000003
O        1.98851369       1.98851371       0.00000002      -0.00000028       0.00000006       0.00000004
O        1.98851370      -0.00000002       1.98851368      -0.00000008      -0.00000007       0.00000002
O        0.00000001       1.98851372       1.98851368      -0.00000025       0.00000014      -0.00000016
