6
Lattice="3.8333080841520477 -2.716368269781023e-09 8.091671530081955e-09 -9.994533656205726e-09 4.796794070310272 -2.769471088978593 1.2214717468181899e-08 -3.96114436539798e-08 5.538942117818135" Properties=species:S:1:pos:R:3:forces:R:3 material_id=wbm-2-45767 energy=-38.646400451660156 stress="-0.0024502624291926622 -3.4558162997910813e-09 -9.159369263045392e-09 -3.4558162997910813e-09 0.0021744323894381523 8.324885669708237e-09 -9.159369263045392e-09 8.324885669708237e-09 0.0021601985208690166" pbc="T T T"
Lu      -0.00000000       0.00000002       0.00000003       0.00000030       0.00000018      -0.00000037
Si      -0.00000005       1.59892252       2.76947103       0.00000241      -0.00001164       0.00000151
Si      -0.00000004       3.19787146      -0.00000008       0.00000238       0.00001207      -0.00000050
Pt       1.91665403      -0.00000003       2.76947108      -0.00000128       0.00000146       0.00000001
Pt       1.91775701       2.39839706      -1.38473547       0.00083469      -0.00000118      -0.00000405
Pt       1.91555117       2.39839703       1.38473547      -0.00083851      -0.00000085       0.00000339
