6
Lattice="3.821539101685353 0.0005010702632090988 -0.9652442275524554 -0.2446771534835297 3.813697438558662 -0.9652447643707511 0.01656791053097696 0.017668003815197692 8.11953893146747" Properties=species:S:1:pos:R:3:forces:R:3 material_id=wbm-3-71384 energy=-43.819488525390625 stress="0.0006241832161322236 -9.317355579696596e-05 -0.0002069377078441903 -9.317355579696596e-05 0.000612198724411428 -0.0002207312500104308 -0.0002069377078441903 -0.0002207312500104308 0.00016270019114017487" pbc="T T T"
Lu       2.41896093       2.57947158       1.53263460       0.00668758       0.00710567       0.02557896
Lu       1.17446456       1.25239902       4.65641521      -0.00666016      -0.00713209      -0.02557869
Nb      -0.12233343       1.90684591      -0.48264661       0.00004279       0.00014756      -0.00006542
Nb       1.91077268       0.00024561      -0.48259779      -0.00014496      -0.00005334       0.00006468
Si       0.46024106       0.49078427       1.82211706      -0.00349123      -0.00379961      -0.00455120
Si       3.13318488       3.34108588       4.36693291       0.00356596       0.00373179       0.00455170
