7
Lattice="3.91949096346878 8.102160616030307e-09 1.4484963825293724 1.5760069300805197 5.508527139874572 1.7626075200171114 0.015461985256951555 -0.0808760028988141 5.9852907559522" Properties=species:S:1:pos:R:3:forces:R:3 material_id=wbm-3-12121 energy=-63.295989990234375 stress="-0.001135422964580357 -0.0005515135126188397 0.000310860836179927 -0.0005515135126188397 -0.00192405900452286 0.001492308103479445 0.000310860836179927 0.001492308103479445 -0.0018618154572322965" pbc="T T T"
Eu       2.49876698       0.89874076       5.29971918       0.00788178       0.02365577      -0.01348089
Eu       3.01666816       4.52891040       3.89832928      -0.00277957      -0.02365492       0.01536586
Si       1.27538868       2.16525077       2.57315664      -0.00149622       0.00046025       0.00588513
Si       4.23368868       3.26240040       6.62254253       0.00268840      -0.00045967      -0.00544430
Ru       1.89102115       3.74920348       6.93461667      -0.00880327      -0.00944105       0.02345846
Ru       3.61816863       1.67844749       2.26112379       0.00856398       0.00944945      -0.02354079
C       -0.00082264       0.00000013      -0.00030411      -0.00605509      -0.00000979      -0.00224353
