10
Lattice="4.023462741132323 -0.0005280581074085834 0.957223723800583 1.936857125398892 5.216772720940016 0.7966169246562531 -0.03568958482328467 0.1816663934200194 9.084878511230087" Properties=species:S:1:pos:R:3:forces:R:3 material_id=wbm-2-46242 energy=-48.54220962524414 stress="0.002267397241666913 0.00028804372414015234 0.0006648057606071234 0.00028804372414015234 0.00043233358883298934 -0.0012054500402882695 0.0006648057606071234 -0.0012054500402882695 -0.00037301407428458333" pbc="T T T"
Lu       1.78278404       1.44551545       1.46356702       0.00316483       0.00629483      -0.00784957
Lu       2.60761952       1.82775424       6.90558172       0.00201210       0.02583219      -0.01446254
Lu       4.15167834       3.95238632       9.37748939      -0.00083006      -0.00628969       0.00839582
Lu       3.31494965       3.57014968       3.93263967      -0.00422668      -0.02584318       0.01398715
Zn       3.30051726       0.51288603       3.98432941       0.00398206      -0.02533243       0.00452452
Zn       2.61892530       4.88505000       6.85313796       0.00547487       0.02526670      -0.00224426
Si       4.19672708       0.98903979       9.16241531       0.00180543       0.01555810      -0.00750555
Si       1.09595753       1.61867834       4.32444675      -0.00209131       0.04652862      -0.01102760
Si       1.72699471       4.40885221       1.67609075      -0.00170381      -0.01553827       0.00746487
Si       4.82699797       3.77924320       6.51389786      -0.00758744      -0.04647688       0.00871722
