5
Lattice="6.431774118760949 0.00018295446997032886 0.017510915753654023 0.0017794566483384396 6.438393356210017 0.0013356225528057485 -0.0015420297970576678 0.00010684030111018862 6.439661811515749" Properties=species:S:1:pos:R:3:forces:R:3 material_id=wbm-1-21778 energy=-23.699365615844727 stress="0.0007034522714093328 -6.5512249420862645e-06 6.736378418281674e-05 -6.5512249420862645e-06 0.0007245040033012629 -5.288944066705881e-06 6.736378418281674e-05 -5.288944066705881e-06 0.0007395512657240033" pbc="T T T"
Cs       0.00327986       6.42547476       6.41255472       0.00159267      -0.00472881      -0.01024935
Eu       3.10678849       3.20110744       3.17395204       0.01570608       0.01510439       0.03326324
I        3.12568941       6.42742123       3.21592592      -0.01199256       0.00876229      -0.01595608
I        6.32821775       3.27735650       3.31011262       0.00859237      -0.01374682      -0.02619117
I        3.13039333       3.20381678       6.40924995      -0.01389855      -0.00539106       0.01913337
