12
Lattice="3.055464595944817 -2.051589833823509e-09 7.736356801596768e-09 -1.5277322930599748 2.646116154988956 -3.371493776712925e-06 4.1322924535050756e-08 -1.2036447802120473e-05 14.294753981906677" Properties=species:S:1:pos:R:3:forces:R:3 material_id=wbm-1-23759 energy=-67.25044250488281 stress="-0.0004292565572541207 1.6098935518016333e-08 1.0294607832861402e-08 1.6098935518016333e-08 -0.00042853059130720794 -2.5155350158456713e-06 1.0294607832861402e-08 -2.5155350158456713e-06 0.004260636400431395" pbc="T T T"
Li      -0.00000032       1.76407045       9.46419098       0.00000032      -0.00000114      -0.01794123
Li       1.52773190       0.88203361       4.83055974       0.00000021       0.00000124       0.01793984
Li      -0.00000099       0.00000002       0.00000011       0.00000034       0.00000000       0.00000078
Li       0.00000007      -0.00000602       7.14737683       0.00000012      -0.00000019      -0.00000010
Rh       0.00000008       1.76407640       2.40669313       0.00000135       0.00000230       0.00918860
Rh       1.52773261       0.88202765      11.88805734      -0.00000307      -0.00000134      -0.00919126
O        0.00000027       1.76406959      12.99662865       0.00000098      -0.00000254      -0.01584319
O        1.52773254       0.88203447       1.29812209      -0.00000054       0.00000340       0.01584331
O        0.00000019      -0.00001455      10.77507145       0.00000189       0.00000418      -0.00176831
O        0.00000027       0.00000262       3.51968245      -0.00000087      -0.00000597       0.00176944
F        0.00000023       1.76407280       5.98316965      -0.00000020       0.00000027       0.01073333
F        1.52773258       0.88203139       8.31158108      -0.00000058      -0.00000021      -0.01073137
