9
Lattice="3.0786355821126654 -0.000767947581438021 -1.1188673929082247e-07 -0.0009995714454241527 6.602851692753059 -3.8120120604794963 -2.6431731292795346e-07 -3.975184801157434e-07 7.62402342339411" Properties=species:S:1:pos:R:3:forces:R:3 material_id=wbm-3-75894 energy=-55.84307098388672 stress="-0.000786278978921473 -2.996410330524668e-05 1.6170249139690895e-08 -2.996410330524668e-05 -0.0005684473435394466 -2.011516286870574e-09 1.6170249139690895e-08 -2.011516286870574e-09 -0.0005759642226621509" pbc="T T T"
V       -0.00000003      -0.00000029       4.82899368      -0.00000056       0.00000091      -0.01678415
V        0.00110036       4.18224243      -2.41450868      -0.00055228      -0.01448121       0.00827355
V       -0.00210035       2.42060928       1.39750304       0.00055288       0.01447941       0.00827411
Sn       1.54073238       1.97341116      -1.13957202      -0.00095246       0.03219030      -0.01861673
Sn       1.53931799      -0.00038411       2.27918810      -0.00000064       0.00000004       0.03726570
Sn       1.53690342       4.62867233       2.67243955       0.00095269      -0.03219336      -0.01861900
Pd       1.52383857       2.20061496       3.81197043       0.01058502       0.00006968       0.00008203
Pd       0.00000004      -0.00000024       0.00006121       0.00000012       0.00000289       0.00004119
Pd       1.55379703       4.40146847      -0.00004140      -0.01058478      -0.00006860       0.00008327
