4
Lattice="4.11050915727244 -2.444592494331564e-07 2.3733336509868934 1.3699892320996587 3.875502960003145 2.373515063559674 -6.243234909140458e-07 -5.0117285567230305e-05 4.746276019413168" Properties=species:S:1:pos:R:3:forces:R:3 material_id=wbm-3-15536 energy=-28.408447265625 stress="-0.0008926457376219332 -1.6226812249442446e-07 -3.575940354494378e-06 -1.6226812249442446e-07 -0.0008964133448898792 2.350619041635582e-07 -3.575940354494378e-06 2.350619041635582e-07 -0.0008885531569831073" pbc="T T T"
Tb       1.37012295       0.96886317       2.37328031      -0.00001151      -0.00000104      -0.00000740
Eu       4.11037490       2.90658949       7.11984445       0.00000495      -0.00000017       0.00000302
Co       5.48040990       3.87540126       4.74699761       0.00004063       0.00000743      -0.00005707
Co       2.74033730       1.93782769       4.74641345      -0.00003411      -0.00000623       0.00006143
