5
Lattice="2.9870131295439726 1.6915013155553195e-06 0.8731121234840962 0.9307618030264546 5.179780285144625 2.361772405305583 -0.06489569089424692 0.012262064504966164 5.768008149560875" Properties=species:S:1:pos:R:3:forces:R:3 material_id=wbm-2-33437 energy=-21.95050048828125 stress="0.000655851443298161 0.00011404610268073156 0.0003443788446020335 0.00011404610268073156 -0.00020804931409657001 -0.0003911306557711214 0.0003443788446020335 -0.0003911306557711214 -0.0004208791069686413" pbc="T T T"
Rb       0.80379313       1.68824816       2.79613938      -0.00199803       0.00489170       0.00683508
Rb       3.04908648       3.50379592       6.20675339       0.00199802      -0.00489110      -0.00683622
Co      -0.00000050      -0.00000010      -0.00000019       0.00000136       0.00000187      -0.00000144
O        2.22528388       4.14704538       3.47906525      -0.00760938      -0.03949246       0.02603528
O        1.62759550       1.04499874       5.52382754       0.00760794       0.03949006      -0.02603265
