12
Lattice="4.354037403913886 -1.2511847720555608e-07 1.3387456934551556e-07 -1.9674780581284817e-07 7.0519526263641925 1.643517589865317e-07 2.2942089554278635e-07 1.7768514684903435e-07 7.467285088265784" Properties=species:S:1:pos:R:3:forces:R:3 material_id=wbm-3-20567 energy=-53.259700775146484 stress="-0.00042316847248002887 -4.063946690280318e-08 -8.495445236178512e-09 -4.063946690280318e-08 -0.0005687379161827266 2.7615810083148062e-08 -8.495445236178512e-09 2.7615810083148062e-08 0.0021787923760712147" pbc="T T T"
Dy       3.26266943       3.46995758       1.60241481       0.00177570       0.03094077      -0.03206490
Dy       1.09136771       0.05601944       5.33605725      -0.00177290      -0.03094519      -0.03206324
Dy       3.26838570       6.99593331       2.13122837      -0.00177206       0.03094382       0.03206188
Dy       1.08565162       3.58199542       5.86487100       0.00177266      -0.03094141       0.03206092
Ga       1.09063687       1.40927923       0.62765140       0.00109161       0.01309431       0.03219634
Ga       3.26340263       2.11669708       4.36129366      -0.00110084      -0.01309490       0.03219933
Ga       1.08638177       4.93525550       3.10599068      -0.00109700       0.01309502      -0.03218676
Ga       3.26765506       5.64267344       6.83963365       0.00109288      -0.01309430      -0.03219100
Cu       1.09455618       5.60816261       0.63851926      -0.00743816       0.00763104      -0.02197841
Cu       3.27157568       1.44378990       6.82876613      -0.00743837      -0.00762894       0.02197537
Cu       1.08246296       2.08218639       3.09512426       0.00743829       0.00762846       0.02197185
Cu       3.25947900       4.96976617       4.37216194       0.00744818      -0.00762879      -0.02198137
