11
Lattice="4.366450291761716 -0.00066766583550254 1.9197825117176406 1.6620047155340383 4.505068900661431 2.13010345998238 -0.03295253001598236 0.24584749828445532 5.971573847875045" Properties=species:S:1:pos:R:3:forces:R:3 material_id=wbm-3-8387 energy=-81.7730941772461 stress="0.0010358981089666486 -0.0003369102778378874 0.002241731621325016 -0.0003369102778378874 0.0009575652075000107 0.0004726391052827239 0.002241731621325016 0.0004726391052827239 -0.003004249185323715" pbc="T T T"
Ta       2.47822668       4.00826850       6.14536247      -0.00554073       0.02219009       0.01092985
Ta       3.48849044       0.74252381       3.86360983       0.00194903      -0.02144937      -0.01247602
Ni       1.12386321       1.53686618       6.28153207      -0.00237715       0.00368790       0.00723722
Ni       4.86547587       3.18289486       3.72890083       0.00603156       0.00672567       0.00377459
Ni       0.79522971       2.37508778       4.04215655       0.01247957       0.00062628       0.00530787
Ni       3.30866584       1.56943329       7.24628655       0.00652737      -0.00742458      -0.00012250
Ni       2.67438697       3.21124199       2.77834366       0.00450805      -0.00338781      -0.00526633
B        1.82610839       0.03891739       1.86762227      -0.01730198       0.00605562       0.01352229
B        4.23607436       4.71110894       8.18362838      -0.00180431      -0.00611066      -0.02190239
B        4.49112212       3.23595926       7.52973650      -0.00770197      -0.01500775       0.00891345
B        1.50439502       1.51440069       2.49095854       0.00323060       0.01409412      -0.00991805
