12
Lattice="4.748991391588232 -7.513667218147067e-07 3.68846436280503e-06 1.017206848012134e-06 6.898487504431131 0.0001474874356676572 -1.5121766699503335e-05 -0.00020609196789005236 8.224905250545156" Properties=species:S:1:pos:R:3:forces:R:3 material_id=wbm-3-60173 energy=-58.67161560058594 stress="-0.0012813080102205276 -1.3382467578537671e-08 -3.1310653980654024e-07 -1.3382467578537671e-08 -0.002109414665028453 -5.082174538983963e-07 -3.1310653980654024e-07 -5.082174538983963e-07 -0.001288480474613607" pbc="T T T"
Tb       3.56176625       3.45022480       2.05323563      -0.00012069       0.00062450      -0.00767123
Tb       1.18722337       6.89756951       6.16560973       0.00010315      -0.00224807      -0.00745405
Tb       3.56170606       0.00071019       2.05945054       0.00011521       0.00224422       0.00746240
Tb       1.18728205       3.44805439       6.17182715      -0.00013066      -0.00062224       0.00766890
In       1.18728006       1.72860742       3.42700422      -0.00012223       0.00574761      -0.00040144
In       1.18720102       5.17791551       0.68542277       0.00012070       0.00576788       0.00059796
In       3.56169369       1.72036387       7.53964003       0.00017401      -0.00576553      -0.00060661
In       3.56179380       5.16967209       4.79805806      -0.00012213      -0.00574811       0.00039655
Pd       1.18721098       1.72222152       0.68528341      -0.00009258      -0.00401557       0.00034652
Pd       3.56167989       5.17605746       7.53977817      -0.00007248       0.00401303      -0.00034107
Pd       3.56177833       1.72687291       4.79783900       0.00008716       0.00403261       0.00010068
Pd       1.18730521       5.17140750       3.42722272       0.00006056      -0.00403028      -0.00009864
