7
Lattice="3.5629488962620757 -1.0041635548074801e-07 -1.1166370601489213 -0.3499569432047863 3.5457206278879476 -1.1166370038054036 0.13622815216479356 0.1503356512266086 6.677295017402566" Properties=species:S:1:pos:R:3:forces:R:3 material_id=wbm-1-40599 energy=-40.449913024902344 stress="-0.0006718934746459126 0.00025982665829360485 0.0007513544405810535 0.00025982665829360485 -0.0006205908139236271 0.0008291885023936629 0.0007513544405810535 0.0008291885023936629 0.0014901492977514863" pbc="T T T"
Yb       2.08566254       2.30164795       0.41228036       0.00399308       0.00440690       0.01273903
Yb       1.26355758       1.39440820       4.03174071      -0.00399334      -0.00440621      -0.01274237
Cu      -0.00000029      -0.00000006       0.00000002       0.00000245      -0.00000028       0.00000026
O        1.78147450       0.00000002      -0.55831848      -0.00000220       0.00000064       0.00000047
O        0.69638371       2.73445840       2.22201048      -0.00000055      -0.00000082       0.00000093
O       -0.17497838       1.77286031      -0.55831862       0.00000092      -0.00000028      -0.00000034
O        2.65283651       0.96159781       2.22201044      -0.00000028       0.00000001       0.00000205
