5
Lattice="3.7232661491956573 -0.007054634340285745 -1.1976250973902067 -0.37826600391211423 3.704008005878234 -1.1976251807751817 0.12818798545933013 0.1416755132900318 6.4113697388955195" Properties=species:S:1:pos:R:3:forces:R:3 material_id=wbm-3-1256 energy=-24.10262107849121 stress="0.0011679641902446747 8.598688145866618e-05 0.0005756346508860588 8.598688145866618e-05 0.001185256289318204 0.0006362085696309805 0.0005756346508860588 0.0006362085696309805 0.002132949884980917" pbc="T T T"
Lu       0.00110114      -0.00099635       0.00000002      -0.00026786       0.00024210      -0.00000087
Al       0.70197319       2.85543842       2.00805974       0.00093754      -0.00084846      -0.00000048
Al       2.77290769       0.98165883       2.00805975      -0.00032726       0.00029524       0.00000011
Si       2.04741049       2.26564223      -0.10964035       0.00135840       0.00184646       0.00074458
Si       1.42298374       1.57551464       4.12575976      -0.00170082      -0.00153534      -0.00074341
