8
Lattice="4.399544166732336 -2.2534650342872577e-09 -5.583283016011187e-08 -2.2534643149500152e-09 4.399544191464384 -4.6401092876154757e-08 -1.2409544801580215e-07 -1.032610150869934e-07 10.203408985127252" Properties=species:S:1:pos:R:3:forces:R:3 material_id=wbm-2-37029 energy=-42.44512939453125 stress="0.001873091678135097 -9.588994043241428e-10 -2.4291502143114485e-09 -9.588994043241428e-10 0.0018730862066149712 -2.799860121527331e-09 -2.4291502143114485e-09 -2.799860121527331e-09 -0.00018847275350708514" pbc="T T T"
La       3.29965800       3.29965808       9.11777965       0.00000077       0.00000122      -0.01567908
La       1.09988602       1.09988602       1.08562883      -0.00000068      -0.00000044       0.01568149
Cd       3.29965803       1.09988595       5.10170465       0.00000015      -0.00000003      -0.00000226
Cd       1.09988595       3.29965815       5.10170459      -0.00000004       0.00000001      -0.00000171
Bi       1.09988596       1.09988599       7.20075334       0.00000003       0.00000014      -0.02087456
Bi       3.29965803       3.29965803       3.00265544       0.00000062       0.00000050       0.02087809
O        1.09988610       3.29965821      -0.00000004       0.00000008      -0.00000111      -0.00000088
O        3.29965818       1.09988602       0.00000002      -0.00000096      -0.00000028      -0.00000113
