3
Lattice="2.973324722083507 -5.893281695223341e-09 1.128558107794785e-08 -1.4866623773293295 2.5749876781385663 -0.00012803392982123677 1.9737852875641793e-08 -0.0002769254725533997 6.134790885787391" Properties=species:S:1:pos:R:3:forces:R:3 material_id=wbm-1-16651 energy=-9.574161529541016 stress="0.0012399547267705202 8.615802293832076e-09 -1.6907147903921782e-10 8.615802293832076e-09 0.0012327178847044706 1.1391375664970838e-05 -1.6907147903921782e-10 1.1391375664970838e-05 -0.0019048599060624838" pbc="T T T"
Au       1.48666178       0.85820097       1.94749225      -0.00000341      -0.00011434      -0.03835321
Au      -0.00000060       1.71650982       4.18717067      -0.00000339       0.00011448       0.03835350
F        0.00000118      -0.00000005      -0.00000004       0.00000678      -0.00000012      -0.00000035
