4
Lattice="4.049189758226205 4.720745585567673e-09 -2.620527811978702e-08 -2.024594887964582 3.9411611322630042 2.024842321085632 -2.6205413910847144e-08 -0.00012277717347326266 4.049178213879664" Properties=species:S:1:pos:R:3:forces:R:3 material_id=wbm-2-14796 energy=-27.816959381103516 stress="-0.0028567006811499596 7.012144198625947e-09 7.904191190455379e-10 7.012144198625947e-09 0.0012438184348866343 9.803126886254176e-06 7.904191190455379e-10 9.803126886254176e-06 -0.0028579100035130978" pbc="T T T"
Zr       2.02459278       1.97048847       4.04930495       0.00000015       0.00000038      -0.00000070
Cu      -0.00000184       1.97054987       2.02471562       0.00000485       0.00000009       0.00000116
Pt       0.00000193      -0.00012144       4.04915983      -0.00000226       0.00000009       0.00004350
Pt       0.00000194       3.94109842       4.04944974      -0.00000278      -0.00000055      -0.00004396
