4
Lattice="4.266418191368429 -3.5013206672166215e-08 2.4632176228732443 1.4221393700921947 4.02241757869303 2.4632176124590783 -2.013165660917004e-08 -2.6989924646467352e-08 4.926435280615539" Properties=species:S:1:pos:R:3:energies:R:1:forces:R:3 material_id=wbm-2-19357 free_energy=-26.492660522460938 energy=-26.492660522460938 stress="0.0002969103225041181 4.30174580401399e-08 2.0266520905920515e-08 4.30174580401399e-08 0.0002968708286061883 5.1455784078058286e-11 2.0266520905920515e-08 5.1455784078058286e-11 0.00029678340069949627" pbc="T T T"
Gd       4.26641817       3.01681315       7.38965289     -16.95911980       0.00000002       0.00000015      -0.00000026
Au      -0.00000001      -0.00000002       0.00000000      -3.12202764      -0.00000131      -0.00000125      -0.00000008
Au       2.84427877       2.01120876       4.92643526      -3.12202740       0.00000132       0.00000105       0.00000016
Au       1.42213938       1.00560438       2.46321762      -3.28948450      -0.00000001       0.00000004       0.00000018
