11
Lattice="3.7038601076315643 -0.0005343578014614784 -0.6817974747651049 -0.12937972475854487 3.7015997087548174 -0.6817975202057736 0.29127434643175115 0.30158930164753067 11.973790541783575" Properties=species:S:1:pos:R:3:energies:R:1:forces:R:3 material_id=wbm-2-29311 free_energy=-79.94966125488281 energy=-79.94966125488281 stress="0.001074122148565948 -0.00011484172864584252 -0.0007525092223659158 -0.00011484172864584252 0.001066100550815463 -0.0007791724638082087 -0.0007525092223659158 -0.0007791724638082087 -0.002789493650197983" pbc="T T T"
Yb       0.83892955       0.86861381       4.55778760      -4.63505459       0.00115516       0.00123059       0.00578294
Yb       3.02684992       3.13401631       6.05240813      -4.63505411      -0.00118904      -0.00119638      -0.00578224
Yb      -0.00000103       0.00000092      -0.00000001      -5.28306627      -0.00000014       0.00000155       0.00000031
Zr       2.23116965       2.31018409       1.72891285     -12.37078762      -0.00293758      -0.00304151      -0.01524015
Zr       1.63458420       1.69247149       8.88128289     -12.37078762       0.00293948       0.00303917       0.01524539
N        2.13549949       0.29336511       1.19892523      -6.51644564       0.00073019       0.00066105       0.00435016
N        0.21889720       2.14441388       1.19891613      -6.51643515       0.00064084       0.00075646       0.00435501
N        1.73025370       3.70929252       9.41127955      -6.51643562      -0.00073564      -0.00066563      -0.00435957
N        3.64685439       1.85824251       9.41127040      -6.51644564      -0.00063599      -0.00075362      -0.00434986
N        2.60772403       2.70009122       3.77324193      -7.29457474      -0.00119007      -0.00126553      -0.00257832
N        1.25801243       1.30258128       6.83695370      -7.29457617       0.00122268       0.00123362       0.00257635
