6
Lattice="3.924293200916191 -1.1480171296621866e-09 -6.3110390492654465e-09 -1.1480141807039068e-09 3.9242931925984537 1.1893550899015448e-09 -1.0875904845095007e-08 2.6871871608809253e-09 8.826711771009126" Properties=species:S:1:pos:R:3:energies:R:1:forces:R:3 material_id=wbm-5-2133 free_energy=-34.23653793334961 energy=-34.23653793334961 stress="0.0015031695365905762 2.97350055689094e-09 -2.485152916786859e-10 2.97350055689094e-09 0.0015031517250463367 -9.127538724840178e-09 -2.485152916786859e-10 -9.127538724840178e-09 -0.000816195853985846" pbc="T T T"
Tb       2.94321989       2.94321994       6.36978176      -8.01087379      -0.00000010       0.00000010       0.04405853
Tb       0.98107332       0.98107325       2.45693005      -8.01087284       0.00000032       0.00000037      -0.04406007
As       2.94322009       0.98107323       0.00000000      -4.76311922       0.00000042      -0.00000058       0.00000075
As       0.98107310       2.94321998      -0.00000005      -4.76311922      -0.00000073       0.00000015       0.00000092
Se       2.94321991       2.94321987       3.31599783      -4.34427643       0.00000038      -0.00000004       0.00186989
Se       0.98107329       0.98107330       5.51071392      -4.34427643      -0.00000029       0.00000005      -0.00186999
