3
Lattice="3.1315038536923687 1.8149077480427398e-07 2.166259122095534e-07 2.182910942349289e-07 3.4937554613506503 2.0171246593213614 1.9021968867635184e-07 9.23711787588446e-06 4.034233308464583" Properties=species:S:1:pos:R:3:energies:R:1:forces:R:3 material_id=wbm-4-29752 free_energy=-27.642436981201172 energy=-27.642436981201172 stress="-0.0009151875274255872 -1.9864870637320564e-08 7.115238531696377e-08 -1.9864870637320564e-08 0.00041390745900571346 -2.99169187201187e-06 7.115238531696377e-08 -2.99169187201187e-06 0.0004143044934608042" pbc="T T T"
Ta       0.00000045      -0.00000089       0.00000716     -12.66090012       0.00000373      -0.00000645       0.00005657
P        1.56575199       2.32917751       4.03423135      -6.27090883       0.00000007       0.00000831      -0.00006030
Ir       1.56575182       1.16458827       2.01711968      -8.71062946      -0.00000381      -0.00000182       0.00000353
