12
Lattice="4.083249201701315 -6.618513514237481e-08 -1.2432771862271562e-08 -1.1443238688384272e-07 6.904477357692399 7.567499769932193e-08 -2.4701112724846595e-08 8.635871893279651e-08 7.862663452474849" Properties=species:S:1:pos:R:3:energies:R:1:forces:R:3 material_id=wbm-3-2824 free_energy=-52.664878845214844 energy=-52.664878845214844 stress="-0.002696290845051408 1.3919351893321164e-08 1.8528162115671876e-08 1.3919351893321164e-08 -0.0006645360263064504 3.6372547640439734e-08 1.8528162115671876e-08 3.6372547640439734e-08 0.0006906123599037528" pbc="T T T"
Yb       0.00000011       2.61513759       1.96566562      -3.20007110       0.00000019       0.00839528       0.00000085
Yb      -0.00000015       4.28933991       5.89699772      -3.20007181       0.00000193      -0.00839325       0.00000139
Al      -0.00148128      -0.00000006       0.00000004      -4.05334568      -0.00013851       0.00000053      -0.00000013
Al       2.04183317       2.11804555       4.35572810      -4.06236696       0.00000180       0.00590830       0.00972483
Al       2.04162472       0.34567258       1.96566577      -3.91919446      -0.00000025       0.01351786       0.00000231
Al       0.00148098       0.00000011       3.93133184      -4.05334663       0.00013734       0.00000000      -0.00000157
Al       2.04162435       6.55880475       5.89699751      -3.91919422       0.00000067      -0.01351748      -0.00000012
Al       2.04141600       2.11804551       7.43826711      -4.06236839       0.00000134       0.00590728      -0.00972791
Al       2.04141582       4.78643196       0.42439643      -4.06236696      -0.00000314      -0.00590895       0.00972481
Al       2.04183311       4.78643176       3.50693559      -4.06236649       0.00000149      -0.00590888      -0.00972624
Pt      -0.00000002       5.48372832       1.96566595      -7.03509283      -0.00000172      -0.00830486       0.00000211
Pt       0.00000008       1.42074908       5.89699766      -7.03509378      -0.00000118       0.00830428      -0.00000039
