6
Lattice="4.074453245112129 -3.444893398192181e-07 5.921961796846061e-09 -3.444893632616742e-07 4.07445367643984 -2.1944017297410994e-07 -5.343440054562784e-09 -4.641796683232897e-07 7.102535946145473" Properties=species:S:1:pos:R:3:energies:R:1:forces:R:3 material_id=wbm-3-75154 free_energy=-33.95457458496094 energy=-33.95457458496094 stress="-0.0010800267336890101 5.157863469662516e-08 4.124014907347373e-08 5.157863469662516e-08 -0.0010798649163916707 5.717917694880725e-09 4.124014907347373e-08 5.717917694880725e-09 0.0003190098505001515" pbc="T T T"
Ti       3.05583988       3.05583936       5.39221821      -9.50906181      -0.00000022      -0.00000198      -0.03234063
Ti       1.01861328       1.01861346       1.71031780      -9.50906277      -0.00000386       0.00000043       0.03232826
Se       3.05583939       3.05583970       2.71725060      -3.90250373       0.00000021       0.00000074      -0.01987891
Se       1.01861293       1.01861282       4.38528500      -3.90250278      -0.00000074      -0.00000107       0.01988705
Se       3.05583996       1.01861347      -0.00000039      -3.56572104       0.00000214      -0.00000082       0.00000164
Se       1.01861325       3.05584025      -0.00000001      -3.56572151       0.00000249       0.00000272       0.00000264
