7
Lattice="3.5576738102692635 2.8847591913257244e-10 -5.89933340369063e-09 2.8847589825982396e-10 3.5576738321643084 9.509429789046295e-09 -1.2742645240688002e-08 2.0431801794335596e-08 7.700710111022623" Properties=species:S:1:pos:R:3:energies:R:1:forces:R:3 material_id=wbm-3-25526 free_energy=-51.62688446044922 energy=-51.62688446044922 stress="-0.0004426372470334172 2.8522096684469034e-08 -1.7389137907386498e-09 2.8522096684469034e-08 -0.00044269696809351444 -1.3792143427338033e-08 -1.7389137907386498e-09 -1.3792143427338033e-08 -0.003589403349906206" pbc="T T T"
Fe       0.00000001       1.77883700       1.79940302      -8.06437874      -0.00000046      -0.00000060      -0.01048702
Fe       0.00000002       1.77883701       5.90130707      -8.06437874      -0.00000061      -0.00000063       0.01048869
Fe       1.77883695      -0.00000000       1.79940302      -8.06437874       0.00000006      -0.00000031      -0.01048902
Fe       1.77883689       0.00000002       5.90130707      -8.06437874      -0.00000013      -0.00000019       0.01048779
Fe       0.00000002       0.00000003       0.00000001      -8.51264286       0.00000002       0.00000015      -0.00000070
Ni       1.77883688       1.77883685      -0.00000009      -6.68672466       0.00000046       0.00000051       0.00000109
Sb      -0.00000007      -0.00000009       3.85035517      -4.17000437       0.00000067       0.00000108      -0.00000081
