8
Lattice="4.572598932169501 -1.8693444336021066e-09 2.6745803323119197e-08 -1.9792905102814937e-08 4.829896531021175 -2.7885424489746775 3.39433195612648e-08 -9.761301999624363e-07 5.577084238164724" Properties=species:S:1:pos:R:3:energies:R:1:forces:R:3 material_id=wbm-1-22489 free_energy=-53.342288970947266 energy=-53.342288970947266 stress="-0.0029121271800249815 7.699971149577323e-08 -1.7473984925686636e-08 7.699971149577323e-08 0.0012956330319866538 -1.2436699137197138e-07 -1.7473984925686636e-08 -1.2436699137197138e-07 0.0012958631850779057" pbc="T T T"
Ir       3.42945369       1.60996420       2.78854505      -8.00083637       0.00000084       0.00000038      -0.00000232
Ir       1.14315431       3.21993041       0.00000230      -8.00083637       0.00000046      -0.00000464      -0.00000249
Pt       1.14315433       0.81867804       1.41799652      -6.22343588       0.00000085      -0.00214825      -0.00373101
Pt       1.14315430       3.19253634       2.78854431      -6.22343588       0.00000071       0.00431195       0.00000170
Pt       1.14315424       0.81867777       4.15909287      -6.22343683       0.00000060      -0.00215746       0.00373234
Pt       3.42945397       4.01121599       1.37054996      -6.22343683      -0.00000087       0.00215331       0.00372973
Pt       3.42945383       1.63735783       0.00000218      -6.22343731      -0.00000250      -0.00430502       0.00000153
Pt       3.42945372       4.01121680      -1.37054636      -6.22343588      -0.00000004       0.00214971      -0.00372960
