11
Lattice="4.302025063671633 0.003353631899987066 1.898001443736457 1.865728141854179 4.511373051899861 1.5926444538619162 0.02231917911479466 -0.37070650176410447 5.775593437544147" Properties=species:S:1:pos:R:3:energies:R:1:forces:R:3 material_id=wbm-3-8387 free_energy=-82.94764709472656 energy=-82.94764709472656 stress="-0.0020103277638554573 -0.00029772749985568225 -0.00287988712079823 -0.00029772749985568225 -0.0012792872730642557 0.0010845472570508718 -0.00287988712079823 0.0010845472570508718 0.0034836353734135628" pbc="T T T"
Ta       2.67709873       3.26834140       5.57996325     -12.62043095       0.00490297      -0.01125459      -0.01300341
Ta       3.51229875       0.87567947       3.68597724     -12.62041759      -0.00525608       0.01125170       0.01290640
Ni       1.30609963       0.78172733       5.80902417      -6.05308247      -0.01533976       0.00282842      -0.02445562
Ni       4.88315683       3.36134109       3.45825440      -6.05458593       0.01526375      -0.00265873       0.02459694
Ni       0.94360000       2.07031169       3.68392765      -5.83738899       0.00031002      -0.00001753       0.00018425
Ni       3.43499743       0.78431703       6.74751815      -6.05389261       0.02700529       0.00272451      -0.00801238
Ni       2.75527680       3.36064909       2.51743979      -6.05241108      -0.02667853      -0.00273463       0.00788651
B        1.54068025       0.18664350       2.32916872      -6.86757088      -0.00629381       0.00431875       0.01761088
B        4.64861877       3.95738308       6.93671830      -6.86755323       0.00599040      -0.00412277      -0.01780257
B        4.45728745       2.35668034       7.37415295      -6.96015596      -0.00412332      -0.04568186       0.00723699
B        1.73527092       1.78736018       1.89317100      -6.96015263       0.00421905       0.04534677      -0.00714815
