10
Lattice="6.243505135958077 -2.3226785265533468e-08 3.582739077332769 2.815339234978937 6.282119054261263 2.3253445640088217 -0.01973443498879141 0.06615675696548516 7.2659215666026835" Properties=species:S:1:pos:R:3:energies:R:1:forces:R:3 material_id=wbm-1-49436 free_energy=-39.80412292480469 energy=-39.80412292480469 stress="-0.000546892115380615 0.00021267349075060338 -9.737689106259495e-05 0.00021267349075060338 -0.00030247471295297146 -0.0003705965355038643 -9.737689106259495e-05 -0.0003705965355038643 -0.00043305722647346556" pbc="T T T"
Tl       2.11198582       4.74000092       3.55105224      -2.93102503       0.01050119       0.02302490      -0.01829863
Tl       0.68361904       1.60827516       6.04021404      -2.93102503      -0.01050057      -0.02302583       0.01829851
As       5.09522833       2.11420770       5.58379811      -4.11379385      -0.00218278       0.00401345       0.00379983
As       3.94388163       4.23406789       7.59020689      -4.11379433       0.00218064      -0.00401285      -0.00379544
S        0.82293073       1.34172902       2.15786661      -4.23261690      -0.02257323       0.02600056       0.01853684
S        5.07387126       5.00654710       9.21297374      -4.23261642       0.00461239      -0.02600160      -0.02884644
S        5.08099970       4.40511783       5.60859383      -4.39200878       0.00159964       0.00350851      -0.00278804
S        3.95811022       1.94315792       7.56541147      -4.39200878      -0.00159869      -0.00350869       0.00278622
S        8.21714439       5.00866285      11.01445671      -4.23261690       0.02305639      -0.02494475      -0.01937617
S        3.96427357       1.33961263       3.96271336      -4.23261690      -0.00509483       0.02494639       0.02968341
