7
Lattice="3.842604678520802 5.4800502839725093e-08 1.4238062016233441 1.5073960748767878 5.333230795717805 1.8289641170405668 0.03999671358603722 0.036179381099330984 5.789218826605006" Properties=species:S:1:pos:R:3:energies:R:1:forces:R:3 material_id=wbm-4-5281 free_energy=-53.133689880371094 energy=-53.133689880371094 stress="-0.0013394486159086227 0.00017043120169546455 -0.0007457028841599822 0.00017043120169546455 0.00030697439797222614 -0.00045986511395312846 -0.0007457028841599822 -0.00045986511395312846 0.00039698000182397664" pbc="T T T"
Dy       2.44051335       0.92869040       5.20898690      -7.23129034      -0.00771774      -0.00949129       0.02050307
Dy       2.95025301       4.44071981       3.83328854      -7.23128986       0.00750579       0.00949100      -0.02058058
Si       1.17222680       2.13578315       2.73387488      -6.32066870       0.01066072      -0.03252981      -0.02857718
Si       4.21799708       3.23362709       6.30819995      -6.32066917      -0.01053612       0.03253001       0.02862095
Ir       1.89843720       3.76962538       6.67064889      -8.93031120      -0.00190421       0.00006309       0.00567837
Ir       3.49147671       1.59978485       2.37131107      -8.93031120       0.00225423      -0.00006419      -0.00554818
C       -0.00091173       0.00000004      -0.00033703      -8.16914558      -0.00026270       0.00000133      -0.00009639
