10
Lattice="5.436888117462515 -4.0481637669313224e-08 -8.726399965961354e-09 -3.155753468962114e-08 4.916123487316498 -2.8383251045614726 -8.977114656145026e-09 3.882746146582276e-08 5.676650286610164" Properties=species:S:1:pos:R:3:energies:R:1:forces:R:3 material_id=wbm-2-6091 free_energy=-67.21611022949219 energy=-67.21611022949219 stress="0.0028379384893924 3.794700731418743e-08 1.274367917858399e-07 3.794700731418743e-08 -0.0009641090291552246 4.540668285812899e-08 1.274367917858399e-07 4.540668285812899e-08 -0.0009639931377023458" pbc="T T T"
K        2.71844418       0.00000003      -0.00000005      -1.98873639      -0.00000183      -0.00000375       0.00000544
K       -0.00000024      -0.00000002       0.00000007      -1.87922919       0.00000222      -0.00000046       0.00000036
B        2.71844420       1.63870782       2.83832516      -7.76751900      -0.00000667       0.00000119      -0.00000060
B        2.71844416       3.27741570       0.00000005      -7.76751900      -0.00000633      -0.00000077      -0.00000054
Ir       1.30165167       2.45806164      -1.41916263      -7.96885157      -0.01980767      -0.00000101       0.00000404
Ir       1.30165175       0.00000003       2.83832530      -7.96885109      -0.01980698      -0.00000012      -0.00001131
Ir       1.30165163       2.45806175       1.41916248      -7.96885109      -0.01980728       0.00000165       0.00000590
Ir       4.13523637      -0.00000003       2.83832515      -7.96884966       0.01981178      -0.00000208      -0.00000175
Ir       4.13523632       2.45806181      -1.41916261      -7.96885014       0.01981258       0.00000669      -0.00000278
Ir       4.13523638       2.45806167       1.41916260      -7.96885014       0.01981002      -0.00000137       0.00000122
