4
Lattice="3.844282936167802 -1.9360745214705996e-08 2.2194977932283106 1.281427622994231 3.6244247022494767 2.219497800401695 -8.1179937588523e-09 3.0452757091302438e-09 4.4389956005174" Properties=species:S:1:pos:R:3:energies:R:1:forces:R:3 material_id=wbm-1-55773 free_energy=-35.605159759521484 energy=-35.605159759521484 stress="9.920114825945348e-05 1.2934634696648573e-08 -1.2987336539538319e-08 1.2934634696648573e-08 9.918765863403678e-05 -4.4239376606469705e-09 -1.2987336539538319e-08 -4.4239376606469705e-09 9.938810399034992e-05" pbc="T T T"
Ti      -0.00000001      -0.00000002       0.00000000      -9.03631210       0.00000060       0.00000024      -0.00000103
Ti       2.56285526       1.81221237       4.43899560      -9.03631210      -0.00000055      -0.00000011      -0.00000112
Si       1.28142762       0.90610617       2.21949780      -6.03286457       0.00000001      -0.00000014       0.00000178
W        3.84428294       2.71831851       6.65849339     -11.49967003       0.00000001      -0.00000002       0.00000038
