9
Lattice="3.5289447915179477 0.0003148639983285535 1.1803639514547999 1.7632816800661708 5.519529096820987 0.5902635397015725 0.013086315791951872 0.00013858299276528797 5.824311545287127" Properties=species:S:1:pos:R:3:energies:R:1:forces:R:3 material_id=wbm-4-7551 free_energy=-62.39524841308594 energy=-62.39524841308594 stress="-0.0030361544340848923 -2.2631844331044704e-05 -0.0022839868906885386 -2.2631844331044704e-05 0.003714936086907983 -1.5793706552358344e-05 -0.0022839868906885386 -1.5793706552358344e-05 0.002942332299426198" pbc="T T T"
Y       -0.00000027      -0.00000016       0.00000016      -8.96683216      -0.00000028      -0.00000040      -0.00000206
Co       4.19600753       5.51963506       5.04685746      -6.60708952      -0.00623110       0.00000621       0.01882996
Co       1.10930522       0.00034640       2.54807925      -6.60708904       0.00622516      -0.00000040      -0.01882469
Co       3.54138151       3.45521742       7.00455165      -6.60708809       0.00006108       0.01982740       0.00002387
Co       2.39219394       3.58135492       4.57651703      -6.75007343      -0.01034950       0.03106934       0.02930057
Co       1.14864375       3.58121534       2.42837011      -6.74995756       0.00989028       0.03119084      -0.02957896
Co       0.62772451       1.93845229       3.98620520      -6.74995708      -0.00989138      -0.03119359       0.02957933
Co       2.91311889       1.93862659       3.01842305      -6.75007343       0.01035353      -0.03106638      -0.02930037
Co       1.76393132       2.06476741       0.59038828      -6.60708857      -0.00005776      -0.01983285      -0.00002759
