6
Lattice="4.779333287090817 1.3129999684814407e-07 -1.62112738704941e-08 -2.389666527686754 4.139024381932726 3.325256504734983e-08 -4.8421689752126894e-08 8.985519975902599e-08 12.57307624252588" Properties=species:S:1:pos:R:3:energies:R:1:forces:R:3 material_id=wbm-1-22986 free_energy=-18.05684471130371 energy=-18.05684471130371 stress="-0.0002454878995195031 9.544156398533232e-08 2.5306816642256535e-09 9.544156398533232e-08 -0.00024549258523620665 1.282630002208407e-08 2.5306816642256535e-09 1.282630002208407e-08 0.0010642526904121041" pbc="T T T"
K        2.38966655       1.37967481      -0.00110622      -2.31490088       0.00000033       0.00000031      -0.00861513
K        0.00000008       2.75934986       6.28543205      -2.31490040      -0.00000030      -0.00000122      -0.00861517
In       0.00000006       0.00000030       9.01938423      -2.98656178       0.00000059      -0.00000026      -0.02701605
In      -0.00000008      -0.00000026       2.73284627      -2.98656178       0.00000013       0.00000136      -0.02701500
Sb       2.38966664       1.37967483       3.74968089      -3.72696018       0.00000076       0.00000066       0.03563051
Sb       0.00000016       2.75934971      10.03621875      -3.72696018      -0.00000152      -0.00000084       0.03563085
