4
Lattice="3.7009282194 0.0 2.1367319089 1.2336427431 3.4892685875 2.1367319069 0.0 0.0 4.27346381" Properties=species:S:1:pos:R:3:energies:R:1:forces:R:3 material_id=wbm-4-2887 free_energy=-30.985313415527344 energy=-30.985313415527344 stress="-0.0018306648125872016 1.4150706384441492e-08 9.214413232427887e-09 1.4150706384441492e-08 -0.001830706954933703 -1.4018684879602006e-08 9.214413232427887e-09 -1.4018684879602006e-08 -0.0018306885613128543" pbc="T T T"
Ti       2.46728548       1.74463429       4.27346381      -9.68480492       0.00000009      -0.00000017       0.00000002
Al       0.00000000       0.00000000       0.00000000      -5.16531849      -0.00000006      -0.00000004       0.00000004
Ni       3.70092822       2.61695144       6.41019572      -5.60263443      -0.00000004       0.00000008       0.00000003
Os       1.23364274       0.87231715       2.13673191     -10.53255463      -0.00000002       0.00000013      -0.00000009
