12
Lattice="4.362684733342833 -6.163559332882997e-09 3.0391590642765645e-08 -9.695527868497486e-09 6.952913171811196 -1.5541927973880006e-07 5.274872173279413e-08 -1.6839947056446496e-07 7.514455072564324" Properties=species:S:1:pos:R:3:energies:R:1:forces:R:3 material_id=wbm-3-20567 free_energy=-53.24757385253906 energy=-53.24757385253906 stress="-0.0010619780514389277 2.7599889040885728e-09 4.91179967809785e-08 2.7599889040885728e-09 -0.000508900557179004 -2.5234184519717928e-08 4.91179967809785e-08 -2.5234184519717928e-08 0.0023147237952798605" pbc="T T T"
Dy       3.27200427       3.41872514       1.59468175      -6.33291578      -0.00016454      -0.00940374      -0.02032266
Dy       1.09068037       0.05773152       5.35190999      -6.33291769       0.00016532       0.00940220      -0.02032564
Dy       3.27202294       6.89518213       2.16254526      -6.33291769       0.00016245      -0.00940193       0.02032596
Dy       1.09066199       3.53418808       5.91977280      -6.33291531      -0.00016352       0.00940140       0.02032583
Ga       1.09062742       1.39132875       0.63294418      -3.22885585       0.00019656       0.01805342       0.01775407
Ga       3.27205748       2.08512729       4.39017276      -3.22885394      -0.00019774      -0.01805094       0.01775011
Ga       1.09071505       4.86778639       3.12428241      -3.22885275      -0.00019628       0.01804728      -0.01774905
Ga       3.27196972       5.56158338       6.88151082      -3.22885561       0.00019652      -0.01804959      -0.01775576
Cu       1.09129826       5.56085667       0.65220446      -3.75012231      -0.00020787      -0.02304042      -0.02062094
Cu       3.27264055       1.39205525       6.86225099      -3.75012159      -0.00020665       0.02304292       0.02061923
Cu       1.09004401       2.08440042       3.10502239      -3.75012207       0.00020930      -0.02304412       0.02062108
Cu       3.27138661       4.86851295       4.40943182      -3.75012159       0.00020646       0.02304351      -0.02062226
