9
Lattice="4.091355302529967 3.599110552201441e-08 9.334327366033815e-08 -2.718535630430069e-08 6.077567783979215 -3.5101129226542525 1.7181145044362254e-07 0.00023592693331674956 7.01838446796399" Properties=species:S:1:pos:R:3:energies:R:1:forces:R:3 material_id=wbm-4-1834 free_energy=-26.074703216552734 energy=-26.074703216552734 stress="-0.002456157933920622 1.608958521970294e-09 2.7498478161191997e-08 1.608958521970294e-09 0.0014799670316278934 -3.724544285432785e-06 2.7498478161191997e-08 -3.724544285432785e-06 0.0014842593809589744" pbc="T T T"
Al      -0.00000072       6.07757010      -1.76970854      -4.05602646       0.00000031       0.00001904      -0.00518335
Al       0.00000023       4.57056516       2.63825316      -4.05604410      -0.00000043       0.00442458       0.00255420
Al       0.00000039       1.50731033       6.14790529      -4.05602646       0.00000015      -0.00447940       0.00261028
Cd       2.04567747       6.07771814       0.60456936      -1.11870193       0.00000062      -0.00000900      -0.00711074
Cd       2.04567779       2.51473496       1.45157279      -1.11868358       0.00000078       0.00611493       0.00352869
Cd       2.04567806       3.56334979       4.96051395      -1.11870146       0.00000083      -0.00616160       0.00354896
Au       2.04567740      -0.00000215      -0.00000142      -3.70626593       0.00000007       0.00002537       0.00001562
Au      -0.00166281       2.02592673       3.50887940      -3.42212677       0.00002167       0.00005131      -0.00001385
Au       0.00166350       4.05174226      -0.00068571      -3.42212677      -0.00002405       0.00001483       0.00005027
