12
Lattice="5.133129023225338 -1.5044253837092312e-05 5.964402730994836e-07 -2.566402245768939 4.445513467540097 -6.752887219125092e-07 1.0113428834670732e-06 -7.372765979815787e-07 8.59934079241037" Properties=species:S:1:pos:R:3:energies:R:1:forces:R:3 material_id=wbm-4-20981 free_energy=-81.29386901855469 energy=-81.29386901855469 stress="-0.0015727157006040215 6.263256864258437e-07 4.897619021448918e-08 6.263256864258437e-07 -0.001571799861267209 1.1876021233092615e-07 4.897619021448918e-08 1.1876021233092615e-07 0.0028535567689687014" pbc="T T T"
Yb       2.56662173       1.48182659       8.02817001      -2.78042436       0.00000743      -0.00000298       0.02443461
Yb       0.00010707       2.96367084       3.72849906      -2.78042483      -0.00000484      -0.00000139       0.02442748
Yb       2.56661902       1.48182643       4.87084059      -2.78042555       0.00000586       0.00000011      -0.02443653
Yb       0.00010932       2.96367090       0.57117042      -2.78042698      -0.00000799       0.00000927      -0.02443939
Mn      -1.23013913       3.67398624       6.44950574      -8.49857903      -0.01411972       0.00814958      -0.00000156
Mn       2.56666412       2.90249206       2.14983473      -8.49856949       0.00001087       0.01632322       0.00000198
Mn       1.33628224       0.77150520       2.14983348      -8.49856567      -0.01413690      -0.00816995       0.00000114
Mn       1.23044525       3.67399269       6.44950466      -8.49856949       0.01412894       0.00816351      -0.00000382
Mn       0.00006384       1.54300635       6.44950535      -8.49857044      -0.00001037      -0.01631767       0.00000052
Mn       3.79686620       0.77151115       2.14983590      -8.49858284       0.01412326      -0.00815384       0.00000055
Os      -0.00000092      -0.00000039       4.29967373      -9.59036064       0.00000239      -0.00000027       0.00000435
Os       0.00000069      -0.00000004       0.00000025      -9.59036255       0.00000120       0.00000051       0.00001080
