6
Lattice="4.114209410326633 1.5725619337350881e-07 -1.0870771466902425e-07 1.572561896840114e-07 4.11420959726094 -6.94215207809869e-08 -1.7486108722505162e-07 -1.0265166785660538e-07 6.793657474799457" Properties=species:S:1:pos:R:3:energies:R:1:forces:R:3 material_id=wbm-2-48009 free_energy=-40.902587890625 energy=-40.902587890625 stress="-0.0024129219818860292 4.246635043614333e-08 -3.022718075840203e-08 4.246635043614333e-08 -0.0024128281511366367 -1.2911176128227453e-08 -3.022718075840203e-08 -1.2911176128227453e-08 0.0007654743385501206" pbc="T T T"
Tb       3.08565718       3.08565730       2.23635697      -6.60408258       0.00000047       0.00000008      -0.04333183
Tb       1.02855204       1.02855215       4.55730079      -6.60408306       0.00000032       0.00000053       0.04332812
Si       3.08565685       3.08565719       5.42050007      -6.15336895      -0.00000094       0.00000007       0.01706555
Si       1.02855249       1.02855250       1.37315728      -6.15336847       0.00000051       0.00000081      -0.01706839
Rh       3.08565730       1.02855253      -0.00000045      -7.69384098      -0.00000011       0.00000159       0.00000369
Rh       1.02855250       3.08565740      -0.00000025      -7.69384098      -0.00000030      -0.00000307       0.00000286
