7
Lattice="4.470352432365379 1.1399269011813675e-06 -2.9361775989834247e-07 -2.235173940252046 6.409230537018341 -2.8174281116403166 -6.738455768697411e-07 -0.11192551797708408 8.822527676366903" Properties=species:S:1:pos:R:3:energies:R:1:forces:R:3 material_id=wbm-3-56604 free_energy=-26.955312728881836 energy=-26.955312728881836 stress="-0.0009676320478320122 -6.470746427567065e-08 -2.9689550373745988e-08 -6.470746427567065e-08 0.0012852376094087958 0.0004912534495815635 -2.9689550373745988e-08 0.0004912534495815635 -0.0006277172360569239" pbc="T T T"
Cs       4.46958495       0.00000765       0.00000639      -3.19029760       0.00003052       0.00000861      -0.00000201
Dy       2.23431678      -0.05596516       4.41125888      -8.88632965      -0.00025769       0.00000466       0.00001027
Br       2.23510963       1.78801505       6.51911974      -2.32518411       0.00014979      -0.01408449       0.01960561
Br      -0.00024054       4.30646728       3.56225777      -2.17819643       0.00015955      -0.02693492      -0.02929348
Br      -0.00006377       4.50928943      -0.51402800      -2.32518864       0.00014885       0.01406723      -0.01961235
Br       2.23492912       1.99083995       2.44284257      -2.17820454       0.00016025       0.02693558       0.02929335
O        4.46946163      -0.05596436       4.41125916      -5.87191057      -0.00039131       0.00000325      -0.00000138
