9
Lattice="4.217016867322233 1.0997837326822837e-08 -1.3535757047294541e-08 2.6052925547662993e-08 5.931503264728766 -3.424554979895923 -2.206922411788312e-08 3.1841715326115665e-08 6.849110008810467" Properties=species:S:1:pos:R:3:energies:R:1:forces:R:3 material_id=wbm-4-1047 free_energy=-52.402374267578125 energy=-52.402374267578125 stress="-0.0023115307558327913 1.3102954277144363e-08 -3.366234579971206e-08 1.3102954277144363e-08 0.0016285174060612917 -2.622425654408289e-08 -3.366234579971206e-08 -2.622425654408289e-08 0.001628501107916236" pbc="T T T"
Ho       0.00000004      -0.00000004       3.98167191      -6.47812080      -0.00000076       0.00000118       0.00092417
Ho      -0.00000002       3.44822896      -1.99083592      -6.47812080       0.00000095       0.00079954      -0.00046267
Ho      -0.00000001       2.48327441       1.43371904      -6.47812080      -0.00000027      -0.00080025      -0.00046168
Al       2.10850845       4.54997257       2.62692803      -4.18448400       0.00000050       0.01121727       0.00647634
Al       2.10850826       1.38153058      -0.79762703      -4.18448448       0.00000042      -0.01121652       0.00647654
Al       2.10850846      -0.00000001       1.59525406      -4.18448448      -0.00000041       0.00000042      -0.01295090
Si       2.10807063       1.97716780       3.42455486      -5.83149004      -0.00083794      -0.00000116       0.00000092
Si       2.10894636       3.95433549      -0.00000002      -5.83148956       0.00083812      -0.00000011      -0.00000047
Ir       0.00000001       0.00000016       0.00000012      -8.75157833      -0.00000062      -0.00000040      -0.00000222
