4
Lattice="4.098163823889585 -6.403161042505121e-07 2.3660748697623895 1.3660540283706644 3.8637839786471453 2.366074828014362 8.921922324441942e-08 1.195680884165196e-08 4.732149584992594" Properties=species:S:1:pos:R:3:energies:R:1:forces:R:3 material_id=wbm-1-18667 free_energy=-10.963424682617188 energy=-10.963424682617188 stress="-0.0008216921123676002 2.0268744904683444e-08 7.475820851254866e-09 2.0268744904683444e-08 -0.0008216370479203761 5.491223475928564e-09 7.475820851254866e-09 5.491223475928564e-09 -0.0008216217975132167" pbc="T T T"
Cd       1.36606000       0.96594390       2.36607481      -1.24055898       0.00000056       0.00000003       0.00000029
Ga       4.09816845       2.89783574       7.09822447      -3.41827011       0.00000090      -0.00000033       0.00000002
Au       0.00000493      -0.00000180       0.00000002      -3.15229750      -0.00000099       0.00000032       0.00000008
Au       2.73211538       1.93188946       4.73214963      -3.15229750      -0.00000046      -0.00000000      -0.00000039
