6
Lattice="4.227704368021711 -0.00012598858318969828 2.4412520125156916 1.4094657721411619 3.985958501473258 2.441484855798087 -7.288777863618157e-05 -0.00011682566625938789 4.882009354615402" Properties=species:S:1:pos:R:3:energies:R:1:forces:R:3 material_id=wbm-5-14487 free_energy=-24.97259521484375 energy=-24.97259521484375 stress="-0.003045307006686926 1.2649794371100143e-05 1.2712696843664162e-05 1.2649794371100143e-05 -0.0030331886373460293 1.9428965970291756e-05 1.2712696843664162e-05 1.9428965970291756e-05 -0.003018653253093362" pbc="T T T"
Cd       0.00003233       0.00005158       0.00004911      -1.37623906      -0.00001092       0.00001135      -0.00002612
Cd       1.40926379       0.99647906       2.44118740      -1.37704229       0.00003488       0.00001202       0.00001406
Ni       1.41050818       2.49076362       4.88235166      -5.55481911      -0.02181935       0.00775307       0.00003780
Ni       2.81848310       0.49938267       4.88224403      -5.55482817      -0.00003282      -0.02314544       0.00001914
Ni       3.52260469       2.49072310       6.10199087      -5.55484390       0.01092897       0.00767527       0.01885422
Ni       3.52266129       2.49078314       3.66299756      -5.55482340       0.01089921       0.00769376      -0.01889913
