10
Lattice="4.584428448075331 1.8460149329637925e-08 -2.0220171400367156e-08 5.1259320958774075e-08 7.466181276371944 -7.464274748102408e-08 -3.770795091736352e-08 -7.464274835928395e-08 7.466181145981583" Properties=species:S:1:pos:R:3:energies:R:1:forces:R:3 material_id=wbm-2-49138 free_energy=-46.592987060546875 energy=-46.592987060546875 stress="-0.0005157490959390998 -3.974143680807174e-09 -6.268250363206107e-10 -3.974143680807174e-09 0.0016133995959535241 -2.0874731276876446e-08 -6.268250363206107e-10 -2.0874731276876446e-08 0.0016133585013449192" pbc="T T T"
Sr       2.29221417       6.19858381       5.00069033      -3.92989659      -0.00000024      -0.01554195       0.01554060
Sr       2.29221434       2.46549063       6.19858164      -3.92989635      -0.00000054      -0.01553955      -0.01553824
Sr       2.29221436       1.26760030       2.46549249      -3.92989683      -0.00000099       0.01554137      -0.01554318
Sr       2.29221435       5.00068856       1.26759849      -3.92989635      -0.00000062       0.01553981       0.01554175
Sn      -0.00066845       3.73309277       3.73309283      -4.00435972      -0.00030228       0.00000053      -0.00000372
Sn       0.00066823       0.00000019       0.00000272      -4.00435925       0.00030331      -0.00000001      -0.00000112
Pt      -0.00000003       1.00295176       4.73604171      -5.71616840       0.00000015      -0.00764562      -0.00764471
Pt       0.00000011       4.73604176       6.46322694      -5.71617222       0.00000015      -0.00764446       0.00764908
Pt      -0.00000010       2.73013666       1.00294929      -5.71616697       0.00000054       0.00764637      -0.00764233
Pt       0.00000003       6.46322893       2.73013841      -5.71617270       0.00000053       0.00764355       0.00764190
