8
Lattice="4.262341395651384 4.460672598568997e-08 -3.213114113748799e-08 -2.1311706525748835 3.691295863970068 3.687452110154342e-08 -1.2731132985327486e-07 8.938225403733771e-08 18.37235864445623" Properties=species:S:1:pos:R:3:energies:R:1:forces:R:3 material_id=wbm-3-79190 free_energy=-39.40876007080078 energy=-39.40876007080078 stress="0.0009600325720384717 -5.894412957729855e-09 -1.0749650947161626e-08 -5.894412957729855e-09 0.0009600123739801347 -3.698340522717558e-09 -1.0749650947161626e-08 -3.698340522717558e-09 -0.00027000330737791955" pbc="T T T"
Cs       2.13117072       1.23043218      13.77926901      -2.36098790      -0.00000010      -0.00000059       0.00000003
Cs      -0.00000004       2.46086383       4.59308978      -2.36098790       0.00000013       0.00000080       0.00000049
Zr       0.00000004       0.00000001      -0.00000009     -10.47554207      -0.00000035       0.00000033       0.00000113
Zr      -0.00000005       0.00000003       9.18617934     -10.47554207       0.00000004      -0.00000021      -0.00000016
Te       2.13117061       1.23043197       7.49459128      -3.43392587       0.00000040      -0.00000041       0.02423924
Te      -0.00000009       2.46086404      16.68077068      -3.43392563      -0.00000015       0.00000090       0.02423769
Te      -0.00000003       2.46086392      10.87776740      -3.43392563      -0.00000013       0.00000065      -0.02423990
Te       2.13117061       1.23043205       1.69158794      -3.43392539       0.00000017      -0.00000147      -0.02423847
