10
Lattice="6.3233392923980904 0.0033778434452630805 -3.5506996552480126 -4.157584961170599 5.9400247648699365 -0.1506402695502827 0.0023642956613541544 -0.0033775652682773716 7.25203986531885" Properties=species:S:1:pos:R:3:energies:R:1:forces:R:3 material_id=wbm-1-15569 free_energy=-43.429691314697266 energy=-43.429691314697266 stress="-0.0011011172318831086 0.0001412046840414405 0.00016893685096874833 0.0001412046840414405 -0.001204040483571589 -0.00024137157015502453 0.00016893685096874833 -0.00024137157015502453 -0.001291021122597158" pbc="T T T"
Cs       0.04407228       4.45586389      -0.07532102      -3.29698706      -0.00000328       0.00000241      -0.00000367
Cs      -2.07761048       2.96832356       3.55070001      -3.36620522      -0.00000112       0.00000023      -0.00000389
Cs       2.12404726       1.48416135       3.62602121      -3.29698586       0.00000000       0.00000154       0.00000047
Ca      -0.00000015       0.00000005      -0.00000015      -6.66474485       0.00000294      -0.00000544       0.00000835
F        1.49278443       4.09659452      -2.55121429      -4.41559935       0.01205681       0.03308904      -0.02060677
F        4.36010257      -0.00000065       2.55121354      -4.41560221       0.03522116       0.00000165       0.02060267
F        1.96560040       0.00000051       1.15012658      -4.41560030      -0.03521521      -0.00000202      -0.02060658
F        0.67296994       1.84680798      -1.15012581      -4.41560221      -0.01205791      -0.03308795       0.02060883
F       -3.19567448       4.56573226       5.46151182      -4.57118273      -0.00001240       0.00001319       0.00001618
F        5.36379306       1.37429312      -1.91081193      -4.57118130       0.00000910      -0.00001277      -0.00001553
