4
Lattice="4.041884031087336 -1.7789275593292475e-08 2.0895890737490928 1.19724611187818 3.7404819383408423 2.6380662918840656 0.11748241678686656 -0.1552478796758884 4.726649060678711" Properties=species:S:1:pos:R:3:energies:R:1:forces:R:3 material_id=wbm-4-38352 free_energy=-25.672216415405273 energy=-25.672216415405273 stress="-0.0021387531887739897 -0.0008864486590027809 -0.0013067586114630103 -0.0008864486590027809 -0.0016487387474626303 0.0017146948957815766 -0.0013067586114630103 0.0017146948957815766 -0.00028655005735345185" pbc="T T T"
Ce       4.01745908       2.68892471       7.09072668      -7.72356319       0.00001003      -0.00000058       0.00000373
V        1.33915477       0.89630756       2.36357492      -8.67205906      -0.00000062      -0.00000029       0.00000054
Ge       5.23916065       3.74066660       4.72759640      -4.63829756      -0.00003375      -0.00012786       0.00005432
Ge       2.67827721       1.79243058       4.72720871      -4.63829708       0.00002428       0.00012871      -0.00005854
