5
Lattice="4.308742272286289 1.5124086577239464e-07 0.7966561416026638 2.0806293872620123 3.7730990928496535 0.7971634273874564 0.0338844757503086 0.020370185168902946 11.867049719941827" Properties=species:S:1:pos:R:3:energies:R:1:forces:R:3 material_id=wbm-2-47446 free_energy=-23.84610939025879 energy=-23.84610939025879 stress="-0.0009060262236744165 4.380147947813384e-05 -0.00040056376019492745 4.380147947813384e-05 -0.0009502844768576324 -0.00023670270456932485 -0.00040056376019492745 -0.00023670270456932485 0.0011865660781040788" pbc="T T T"
Pr       3.96185933       2.33934594       2.67278622      -7.15574884      -0.00423328      -0.00250289       0.02290073
Pr       2.46139862       1.45412461      10.78807494      -7.15574837       0.00423704       0.00250386      -0.02290899
Si       0.03388660       0.02037082      11.86704521      -4.77953911      -0.00000394       0.00000021       0.00000361
I        1.46079516       0.86209873       4.14956082      -2.37753677       0.00703556       0.00415051      -0.03805572
I        4.96246337       2.93137266       9.31129897      -2.37753677      -0.00703537      -0.00415172       0.03806043
