10
Lattice="4.326954063133809 -2.888464154326176e-09 2.0092065570010875e-08 -5.329345470972939e-09 7.589716127736812 1.2920776188693588e-05 3.519475713372486e-08 -5.927765208073316e-06 7.589705282623444" Properties=species:S:1:pos:R:3:energies:R:1:forces:R:3 material_id=wbm-4-14446 free_energy=-45.15016174316406 energy=-45.15016174316406 stress="-0.001960580237209797 9.285254232160867e-10 -3.53848528256151e-09 9.285254232160867e-10 0.001360192894935608 1.3714526403418859e-07 -3.53848528256151e-09 1.3714526403418859e-07 0.0013600826496258378" pbc="T T T"
Nd       2.16347706       2.42952068       1.36532399      -6.60577250      -0.00000038       0.00094818      -0.00093778
Nd       2.16347720       6.22437782       2.42952171      -6.60577297      -0.00000055       0.00095509       0.00096912
Nd       2.16347699       1.36533673       5.16017528      -6.60577106       0.00000102      -0.00096951      -0.00095079
Nd       2.16347696       5.16019021       6.22438195      -6.60576868       0.00000051      -0.00093765       0.00092619
Hg      -0.00087522       7.58970607       7.58969714      -0.37640417      -0.00083130       0.00000978       0.00001391
Hg       0.00087531       3.79484958       3.79486445      -0.37640363       0.00083095       0.00000390      -0.00002377
Ge      -0.00000009       4.69115692       0.89630203      -4.49356604       0.00000033       0.00201156       0.00203364
Ge      -0.00000003       0.89629068       2.89854303      -4.49356461       0.00000073       0.00203885      -0.00202760
Ge       0.00000001       6.69341003       4.69115454      -4.49356651      -0.00000061      -0.00201296       0.00201575
Ge       0.00000006       2.89855976       6.69340256      -4.49356890      -0.00000069      -0.00204726      -0.00201868
