10
Lattice="4.069657098531029 -0.0005392266849598298 0.9681513917147249 1.9701604258443037 5.196074652347501 0.7591784491257316 -0.009718387208354908 0.10748827913275759 9.077704508342817" Properties=species:S:1:pos:R:3:energies:R:1:forces:R:3 material_id=wbm-2-46242 free_energy=-48.440696716308594 energy=-48.440696716308594 stress="0.0020047526340931654 0.0004462012730073184 0.0004095930198673159 0.0004462012730073184 0.0013641355326399207 -0.0018567926017567515 0.0004095930198673159 -0.0018567926017567515 0.0003405757015570998" pbc="T T T"
Lu       1.80880938       1.42463819       1.43628316      -5.92758894       0.00500097      -0.00720639      -0.02101669
Lu       2.66197035       1.76694582       6.88578048      -6.06865263       0.00014711       0.00369100      -0.00156534
Lu       4.22188555       3.87838470       9.36889275      -5.92758894      -0.00500328       0.00720530       0.02101824
Lu       3.36795923       3.53607765       3.91921272      -6.06865215      -0.00039790      -0.00368758       0.00150479
Zn       3.35516504       0.46916598       3.97024410      -1.28276610      -0.00458862      -0.01097847       0.01983536
Zn       2.67447299       4.83385710       6.83468163      -1.28276408       0.00466076       0.01098128      -0.01982146
Si       4.27558275       0.93275628       9.13913865      -5.53855276      -0.00199984      -0.00238400       0.00886729
Si       1.12715621       1.58497046       4.30079556      -5.40278912       0.00369627      -0.01894064      -0.01475922
Si       1.75411090       4.37026860       1.66579901      -5.53855324       0.00220364       0.00238136      -0.00882285
Si       4.90338327       3.71805377       6.50434368      -5.40278864      -0.00371916       0.01893812       0.01475993
