6
Lattice="3.885152847952374 0.0006531927902829207 -0.9813972578365843 -0.24860664322578566 3.877190409131029 -0.9813980143382816 -0.05788719072823033 -0.06172795301156634 7.959816131590281" Properties=species:S:1:pos:R:3:energies:R:1:forces:R:3 material_id=wbm-3-71384 free_energy=-43.573936462402344 energy=-43.573936462402344 stress="-0.0021393869537860155 0.00017976967501454055 0.0007345883641391993 0.00017976967501454055 -0.0021163951605558395 0.0007832195260562003 0.0007345883641391993 0.0007832195260562003 0.0008017354412004352" pbc="T T T"
Lu       2.43020924       2.59146375       1.44255171      -5.99398136       0.00056943       0.00060162       0.00458742
Lu       1.14844835       1.22465307       4.55446914      -5.99398136      -0.00056449      -0.00060914      -0.00458458
Nb      -0.12429914       1.93859502      -0.49069988      -9.77907562      -0.00000430       0.00000121      -0.00000156
Nb       1.94257694       0.00032254      -0.49069784      -9.77907372      -0.00000638       0.00000370       0.00000135
Si       0.45368959       0.48379699       1.79704450      -6.01391125      -0.00498308      -0.00531248      -0.01856010
Si       3.12496615       3.33232172       4.19997643      -6.01391077       0.00498882       0.00531505       0.01855750
