9
Lattice="3.018836496792895 -9.589380024324789e-09 1.4442341970089973e-07 -1.665747487359896e-07 6.710826408453274 -3.874497274342043 1.738912560067441e-07 -4.0610949389196147e-07 7.748993835834694" Properties=species:S:1:pos:R:3:energies:R:1:forces:R:3 material_id=wbm-3-75894 free_energy=-55.47438049316406 energy=-55.47438049316406 stress="-0.0022472827695310116 -9.794220545700227e-09 8.750467572760101e-10 -9.794220545700227e-09 0.0023363728541880846 -2.3540239979524813e-08 8.750467572760101e-10 -2.3540239979524813e-08 0.00233633304014802" pbc="T T T"
V       -0.00000022      -0.00000082       4.73356474      -8.66256142       0.00000014       0.00000235       0.00550371
V        0.00000002       4.09938988      -2.36678399      -8.66256332       0.00000017       0.00476299      -0.00274983
V        0.00000004       2.61143725       1.50771597      -8.66256046       0.00000065      -0.00476482      -0.00275645
Sn       1.50941809       1.99284698      -1.15057029      -4.05437565      -0.00000012       0.01345956      -0.00777151
Sn       1.50941776      -0.00000084       2.30113999      -4.05437422       0.00000084       0.00000025       0.01554452
Sn       1.50941873       4.71797939       2.72392705      -4.05437517      -0.00000205      -0.01346220      -0.00777486
Pd       1.50970704       2.23694158       3.87449625      -5.86478615      -0.00173585      -0.00000484       0.00000833
Pd      -0.00000004       0.00000012      -0.00000006      -5.59400177       0.00000065       0.00000983      -0.00000322
Pd       1.50912973       4.47388435       0.00000037      -5.86478615       0.00173548      -0.00000305      -0.00000079
