7
Lattice="4.311392696938427 6.546549496982663e-08 1.207210171680755 1.6865628707779585 5.309153802480981 2.2790542780745646 0.050576286722702694 0.16412067024604104 8.121766522061582" Properties=species:S:1:pos:R:3:energies:R:1:forces:R:3 material_id=wbm-2-49114 free_energy=-25.982627868652344 energy=-25.982627868652344 stress="-0.0014434021431952715 0.00013457266322802752 -9.64276769082062e-05 0.00013457266322802752 -0.0014586468460038304 -0.0004805663484148681 -9.64276769082062e-05 -0.0004805663484148681 -0.0011259950697422028" pbc="T T T"
Sr       1.47950364       2.72449295       3.01793587      -3.59602451       0.00195026      -0.03144451      -0.00802221
Sr       4.56871483       2.74878159       8.59000763      -3.59602451      -0.00249871       0.03144690       0.00786748
Tl       2.15570333       0.00000033       0.60360691      -2.51969218      -0.00095026       0.00000114      -0.00026424
Tl       2.99138403       4.39613254       5.91911551      -2.40674162      -0.00009027       0.01441730       0.00074500
Tl       3.05593653       1.07714194       5.68857612      -2.40674138       0.00030810      -0.01441748      -0.00068384
Pt       2.21999336       4.97349163       8.67929286      -5.72870255       0.00208042       0.02497332      -0.00496282
Pt       3.83005618       0.49978269       2.92916308      -5.72870255      -0.00079955      -0.02497669       0.00532068
