7
Lattice="3.5947278455215543 -1.687038354409104e-08 -1.126596716333259 -0.3530782266109319 3.577345876792305 -1.126596667307188 0.06971243746940094 0.07693175144697062 6.520737682173065" Properties=species:S:1:pos:R:3:energies:R:1:forces:R:3 material_id=wbm-1-40599 free_energy=-40.46476745605469 energy=-40.46476745605469 stress="0.0011025615967810154 -0.0005214152042753994 -0.0015076501294970512 -0.0005214152042753994 0.0009996115695685148 -0.0016637545777484775 -0.0015076501294970512 -0.0016637545777484775 -0.0032354213763028383" pbc="T T T"
Yb       2.09244568       2.30913356       0.37824406      -5.66011047       0.01252215       0.01381911       0.03995603
Yb       1.21891641       1.34514411       3.88930023      -5.66011047      -0.01252222      -0.01382037      -0.03995878
Cu      -0.00000002       0.00000002      -0.00000001      -3.41336775       0.00000093       0.00000049      -0.00000042
O        1.79736392      -0.00000006      -0.56329836      -6.80288696      -0.00000077      -0.00000064      -0.00000014
O        0.66872950       2.72147531       2.13377216      -6.06270123       0.00000079       0.00000055       0.00000039
O       -0.17653914       1.78867292      -0.56329831      -6.80288744      -0.00000085      -0.00000074       0.00000161
O        2.64263256       0.93280231       2.13377208      -6.06270170       0.00000011       0.00000140       0.00000132
