6
Lattice="3.431824763072283 1.0324973601070889e-07 -1.142585007014984e-09 1.0324974323435429e-07 3.431824624374445 6.137269209543769e-08 -6.3962540461005545e-09 1.7390765150116814e-07 10.466457184922902" Properties=species:S:1:pos:R:3:energies:R:1:forces:R:3 material_id=wbm-4-37363 free_energy=-44.971641540527344 energy=-44.971641540527344 stress="0.001873318338766694 4.221128619974479e-07 -1.5675558984185045e-07 4.221128619974479e-07 0.0018732830649241805 -2.1639684177898744e-07 -1.5675558984185045e-07 -2.1639684177898744e-07 -0.001230983529239893" pbc="T T T"
Tb      -0.00000009      -0.00000003      -0.00000029      -6.73949289      -0.00000049       0.00000086       0.00000691
Tb      -0.00000006       0.00000016       7.05991636      -7.02931547      -0.00000117      -0.00000054       0.00233701
Tb       0.00000021       0.00000022       3.40654111      -7.02931690       0.00000033       0.00000120      -0.00234318
Os       1.71591220       1.71591249       8.69627490      -9.14727211      -0.00000262       0.00000416      -0.00472973
Os       1.71591258       1.71591289       1.77018274      -9.14727211       0.00000138      -0.00000106       0.00472899
Pt       1.71591245       1.71591181       5.23322824      -5.87897205       0.00000262      -0.00000465       0.00000016
