12
Lattice="4.746275651787532 -3.851883490674132e-07 7.74089261092354e-06 1.444107016287124e-06 6.837588906172143 0.00021870239319193003 -8.08736177007136e-06 -9.660588529518848e-05 8.22191298740792" Properties=species:S:1:pos:R:3:energies:R:1:forces:R:3 material_id=wbm-3-60173 free_energy=-58.95858383178711 energy=-58.95858383178711 stress="-0.0006190853309817612 6.091831927790281e-09 2.587600249626121e-07 6.091831927790281e-09 -0.002033001510426402 1.5884284039202612e-06 2.587600249626121e-07 1.5884284039202612e-06 -0.0005915865767747164" pbc="T T T"
Tb       3.55970375       3.42008939       2.05162931      -6.34578419       0.00000428       0.00159894      -0.00735934
Tb       1.18657532       6.83618621       6.16274971      -6.34578180      -0.00000305      -0.00154427      -0.00750178
Tb       3.55970336       0.00130396       2.05939514      -6.34578323       0.00000640       0.00154456       0.00750178
Tb       1.18657425       3.41740126       6.17051549      -6.34578323      -0.00000510      -0.00159960       0.00735936
In       1.18656337       1.71566333       3.42607327      -2.84854245      -0.00000639       0.00773096      -0.00055770
In       1.18657125       5.13449756       0.68512314      -2.84852958       0.00000539       0.00772569       0.00073070
In       3.55971036       1.70299189       7.53702208      -2.84852934       0.00001849      -0.00772559      -0.00073238
In       3.55971231       5.12182673       4.79607208      -2.84854150      -0.00002161      -0.00773200       0.00055458
Pd       1.18657411       1.70574107       0.68554952      -5.54532909      -0.00002566      -0.00509772       0.00007485
Pd       3.55969734       5.13175086       7.53659514      -5.54532909      -0.00000440       0.00509928      -0.00007449
Pd       3.55970677       1.71298188       4.79642263      -5.54532433       0.00001277       0.00510017       0.00050528
Pd       1.18657886       5.12451063       3.42572199      -5.54532623       0.00001890      -0.00510044      -0.00050083
