10
Lattice="5.358928513000909 -0.007066108833617829 -3.0333965015694586 -1.6774248217165524 4.984121543104569 -2.8253005863773226 -0.061448425209912776 -0.0942239461905867 6.219951254854731" Properties=species:S:1:pos:R:3:energies:R:1:forces:R:3 material_id=wbm-3-22874 free_energy=-44.785614013671875 energy=-44.785614013671875 stress="-0.0008146604523062706 0.0012839942937716842 0.0011654868721961975 0.0012839942937716842 -0.0010465305531397462 0.00257192924618721 0.0011654868721961975 0.00257192924618721 -0.00043934950372204185" pbc="T T T"
K        1.77938717       2.39445640       3.29070303      -3.37144923      -0.00002068      -0.00013103      -0.00010100
K        0.11828597       3.63739865       0.20476405      -3.37248182       0.00459011       0.01009910       0.00391349
K        3.50181919       1.24611354       0.15685645      -3.37228441      -0.00445794      -0.01000218      -0.00408299
Co       0.00005310      -0.00021343       0.00002927      -5.78383923      -0.00005488      -0.00002172      -0.00001206
F        3.42671358       3.65954700      -4.55644468      -4.78221083      -0.01496086      -0.00522959       0.00855422
F       -0.13326636       4.07729255       2.86916439      -4.80630684       0.01234347      -0.01888190       0.00608708
F        3.75331225       0.80514363      -2.50833203      -4.80627871      -0.01233011       0.01893269      -0.00587880
F        0.19357027       1.22295558       4.91780540      -4.78215742       0.01492757       0.00523603      -0.00846303
F        0.95447542       1.05242671       1.24678926      -4.85420895       0.00589979       0.00005637       0.01007417
F        2.66529171       3.83017537      -0.88553570      -4.85439825      -0.00593664      -0.00005777      -0.01009092
