12
Lattice="3.7677048195494454 4.77782528895074e-09 -0.994376700720729 -5.372206636975038e-08 6.342571188026083 -2.385163467866567e-07 0.023154625047421093 -3.046258077264167e-07 7.734744293984784" Properties=species:S:1:pos:R:3:energies:R:1:forces:R:3 material_id=wbm-4-12109 free_energy=-88.97154235839844 energy=-88.97154235839844 stress="0.0025317559484392405 8.699868381256692e-09 -0.0006190014537423849 8.699868381256692e-09 -0.003180045634508133 1.6755302922888404e-08 -0.0006190014537423849 1.6755302922888404e-08 0.00044221431016921997" pbc="T T T"
La       0.42929447       4.75692371       1.63013034      -7.08530617       0.00028346       0.00000628       0.00052154
La       3.36156467       1.58563905       5.11023666      -7.08530664      -0.00027668      -0.00000263      -0.00051570
Fe       1.88225943       3.17129397      -0.49677185      -7.62302256      -0.00066514       0.00000652       0.00018752
Fe       1.88544529       0.00000840      -0.49760476      -7.62302446       0.00066523       0.00000829      -0.00018079
Fe       2.55911011       0.44898971       2.07292321      -7.65863419      -0.00165098      -0.04555359      -0.00345652
Fe       1.22819128       5.89357920       4.66836476      -7.65861702       0.00003829       0.04554880       0.00387922
Fe       1.23174958       3.62027532       4.66744381      -7.65863371       0.00165026      -0.04554418       0.00345525
Fe       2.56266828       2.72229333       2.07200242      -7.65861845      -0.00004428       0.04555733      -0.00388651
Fe       0.31226766       1.58564542       1.18788787      -7.85332203       0.00092456      -0.00000753       0.00242391
Fe       3.47859145       4.75693107       5.55248022      -7.85331964      -0.00092436      -0.00000290      -0.00242573
Co       0.90133924       1.58563758       3.42007330      -6.60687208       0.00737800      -0.00000812       0.02765575
Co       2.88952031       4.75692325       3.32029404      -6.60686779      -0.00737824      -0.00000848      -0.02765793
