6
Lattice="3.3648784564914505 2.4839452709078134e-08 -2.8719358169777202e-08 2.48394529044783e-08 3.3648784346771126 -3.509123072124154e-08 -8.864371439943835e-08 -1.0827970372279517e-07 10.36898849337913" Properties=species:S:1:pos:R:3:energies:R:1:forces:R:3 material_id=wbm-3-48152 free_energy=-28.831623077392578 energy=-28.831623077392578 stress="-0.0008763773366808891 5.800485425311308e-09 -6.484568437770122e-09 5.800485425311308e-09 -0.0008763400255702436 -1.714541980613049e-10 -6.484568437770122e-09 -1.714541980613049e-10 0.0011449343292042613" pbc="T T T"
Tm       0.00000009       0.00000004      -0.00000000      -5.87415171      -0.00000053      -0.00000029      -0.00000015
Tm      -0.00000005      -0.00000008       7.05273283      -5.58302021       0.00000002       0.00000005       0.04576240
Tm      -0.00000009      -0.00000006       3.31625559      -5.58302021       0.00000006       0.00000021      -0.04576143
Zn       1.68243916       1.68243918       5.18449462      -1.17820489       0.00000090       0.00000055      -0.00000101
Ni       1.68243917       1.68243912       8.70117833      -5.30661345      -0.00000022      -0.00000058       0.03581075
Ni       1.68243922       1.68243921       1.66780979      -5.30661345      -0.00000029       0.00000007      -0.03581052
