5
Lattice="3.2653589301238224 8.868215701305559e-09 5.8947277298837205e-08 -1.125190788891814e-08 3.792417391966116 -1.1864517453943846 1.3058080534960393e-07 0.05772500479791921 6.8391799082469875" Properties=species:S:1:pos:R:3:energies:R:1:forces:R:3 material_id=wbm-5-11711 free_energy=-19.775896072387695 energy=-19.775896072387695 stress="-0.0027896445244550705 -1.3860225855921726e-08 -2.3667654502901314e-08 -1.3860225855921726e-08 0.000471155479317531 2.5782169359445106e-06 -2.3667654502901314e-08 2.5782169359445106e-06 0.0004957873024977744" pbc="T T T"
Mg       1.63267942       2.46200691       1.21533595      -2.53121519      -0.00000068      -0.00029812      -0.00055401
Mg       1.63267951       1.38813533       4.43739196      -2.53121567      -0.00000025       0.00029985       0.00055790
Ni       0.00000001       0.75924516       2.42701138      -5.44308615       0.00000090      -0.00202709      -0.00658348
Ni       0.00000015       3.09089747       3.22571684      -5.44308519       0.00000003       0.00202555       0.00658223
Sn       0.00000008      -0.00000008       0.00000024      -3.82729411       0.00000002      -0.00000016      -0.00000263
