4
Lattice="4.035107663031064 -2.768958508814749e-08 2.3296704520156672 1.345035890088017 3.8043361563615994 2.3296704026227806 -2.072475074927416e-08 -7.514828631576031e-08 4.6593409399276355" Properties=species:S:1:pos:R:3:energies:R:1:forces:R:3 material_id=wbm-1-34196 free_energy=-37.50788116455078 energy=-37.50788116455078 stress="-0.0025157262571156025 -3.2291875839973727e-09 -1.6163079763487076e-08 -3.2291875839973727e-09 -0.0025158897042274475 -1.869797188192024e-07 -1.6163079763487076e-08 -1.869797188192024e-07 -0.0025158897042274475" pbc="T T T"
Tb       4.03510764       2.85325205       6.98901133      -6.97249842       0.00000036       0.00000006       0.00000002
Nb       1.34503590       0.95108401       2.32967045     -10.79975510      -0.00000006      -0.00000019       0.00000032
Os       0.00000006       0.00000000       0.00000001      -9.86781502       0.00000106      -0.00000068      -0.00000157
Os       2.69007170       1.90216801       4.65934090      -9.86781597      -0.00000134       0.00000074       0.00000124
