10
Lattice="3.4352119591469594 2.3590380350307635e-09 1.6145313289586556e-08 -1.7176059723234285 2.9749808012069003 -2.8269875483778524e-08 5.869920690133213e-08 -8.474996804328446e-08 12.694664103483563" Properties=species:S:1:pos:R:3:energies:R:1:forces:R:3 material_id=wbm-3-43791 free_energy=-84.7393798828125 energy=-84.7393798828125 stress="-0.003100300207734108 1.4931537117846005e-09 -4.454609126014475e-09 1.4931537117846005e-09 -0.0031003274489194155 -3.4922102987167136e-09 -4.454609126014475e-09 -3.4922102987167136e-09 -0.002650691196322441" pbc="T T T"
Ti       1.71760599       0.99166024       5.15848745     -10.89581299      -0.00000001      -0.00000010       0.02804148
Ti       0.00000005       1.98332042      11.50581949     -10.89581299       0.00000022      -0.00000030       0.02803993
Ti       0.00000003       1.98332050       7.53617663     -10.89581203      -0.00000055      -0.00000072      -0.02803963
Ti       1.71760599       0.99166026       1.18884458     -10.89581203       0.00000009      -0.00000018      -0.02804273
Se       0.00000003      -0.00000010       9.52099817      -4.20715189       0.00000033      -0.00000006      -0.00000100
Se      -0.00000001       0.00000001       3.17366608      -4.20715237       0.00000016       0.00000139      -0.00000048
N        0.00000005       1.98332045       5.49265324      -8.18545723       0.00000014      -0.00000024       0.01420965
N        1.71760605       0.99166019      11.83998519      -8.18545628      -0.00000013       0.00000035       0.01421262
N        1.71760602       0.99166025       7.20201092      -8.18545723      -0.00000005       0.00000042      -0.01421191
N        0.00000003       1.98332051       0.85467868      -8.18545723      -0.00000021      -0.00000057      -0.01420812
