5
Lattice="3.941388677256253 5.835261694424187e-08 3.2301330137873616e-08 5.835261744849441e-08 3.9413885910601807 -8.421755358629249e-09 3.230133016350383e-08 -8.421754505408977e-09 3.94138867675116" Properties=species:S:1:pos:R:3:energies:R:1:forces:R:3 material_id=wbm-3-8983 free_energy=-34.089759826660156 energy=-34.089759826660156 stress="-0.0033179745078086853 2.056801617911219e-09 9.40591604603469e-08 2.056801617911219e-09 -0.0033180650789290667 -8.377477911380993e-08 9.40591604603469e-08 -8.377477911380993e-08 -0.0033180497121065855" pbc="T T T"
Dy      -0.00000012       0.00000003      -0.00000009      -7.52670765       0.00000361      -0.00000129       0.00000295
Co       0.00000006       1.97069426       1.97069430      -6.51697302       0.00000084       0.00000212      -0.00000014
Co       1.97069430       0.00000001       1.97069433      -6.51697445      -0.00000390      -0.00000162      -0.00000207
Co       1.97069440       1.97069434       0.00000005      -6.51697159      -0.00000215       0.00000061      -0.00000252
B        1.97069452       1.97069430       1.97069445      -7.01213169       0.00000166       0.00000017       0.00000168
