7
Lattice="3.594546631469291 -1.944864768219466e-08 -4.522594473512155e-08 -1.9448647848597646e-08 3.5945467385318026 -1.3607897913143327e-08 -8.871941005586853e-08 -2.4204750592790523e-08 7.856779715568635" Properties=species:S:1:pos:R:3:energies:R:1:forces:R:3 material_id=wbm-3-20255 free_energy=-25.931686401367188 energy=-25.931686401367188 stress="-0.002288595074787736 -1.1111080056025457e-08 7.50839035390527e-09 -1.1111080056025457e-08 -0.002288611838594079 -3.139984383615513e-10 7.50839035390527e-09 -3.139984383615513e-10 0.0033188017550855875" pbc="T T T"
Zn       1.79727331       1.79727337       0.00000019      -2.04255295       0.00000079       0.00000033      -0.00000087
Cu       0.00000003       1.79727337       1.87549508      -3.93347263      -0.00000011       0.00000029       0.00604435
Cu      -0.00000010       1.79727334       5.98128449      -3.93347287      -0.00000038      -0.00000003      -0.00604304
Cu       1.79727330       0.00000004       1.87549497      -3.93347263      -0.00000015      -0.00000035       0.00604485
Cu       1.79727317      -0.00000006       5.98128456      -3.93347263       0.00000044       0.00000003      -0.00604410
Cu       0.00000007       0.00000002       0.00000001      -3.94809341      -0.00000084      -0.00000005      -0.00000015
Sb      -0.00000006      -0.00000006       3.92838988      -4.20714951       0.00000024      -0.00000023      -0.00000104
