3
Lattice="3.011891837736788 1.908753432811533e-08 3.487669264360623e-08 -1.5059459136674365 2.608374924456613 -6.108495802166356e-08 6.643552671289231e-08 -9.504331934648275e-08 5.771375803612028" Properties=species:S:1:pos:R:3:energies:R:1:forces:R:3 material_id=wbm-1-16651 free_energy=-9.644902229309082 energy=-9.644902229309082 stress="0.002881227992475033 3.469036613523713e-08 3.14854453620228e-08 3.469036613523713e-08 0.0028812745586037636 -7.359700848752482e-09 3.14854453620228e-08 -7.359700848752482e-09 -0.0024170975666493177" pbc="T T T"
Au       1.50594587       0.86945824       1.83013104      -2.63608932      -0.00000138       0.00000075      -0.01219288
Au      -0.00000007       1.73891657       3.94124482      -2.63608932       0.00000021      -0.00000126       0.01219241
F        0.00000018       0.00000004      -0.00000007      -4.37272358       0.00000118       0.00000050       0.00000045
