4
Lattice="4.686460467285168 4.9953283516460305e-08 2.705729207057272 1.5621536615099492 4.418437339326878 2.7057291802248846 1.774478582329281e-08 -1.4656535320853133e-08 5.411458385304855" Properties=species:S:1:pos:R:3:energies:R:1:forces:R:3 material_id=wbm-2-8795 free_energy=-8.655606269836426 energy=-8.655606269836426 stress="-0.0016750171780586243 2.245141850210075e-09 -4.654372165457943e-10 2.245141850210075e-09 -0.0016750235809013247 6.103586525085802e-09 -4.654372165457943e-10 6.103586525085802e-09 -0.00167502136901021" pbc="T T T"
Ca       4.68646497       3.31382574       8.11718637      -3.33988929      -0.00000301       0.00000290       0.00000183
Cd       0.00000206      -0.00000087      -0.00000024      -0.88794428       0.00000236      -0.00000061       0.00000032
Cd       3.12430908       2.20921780       5.41145810      -0.88794434       0.00000311      -0.00000108       0.00000003
Bi       1.56215760       1.10460898       2.70573093      -3.53982806      -0.00000247      -0.00000120      -0.00000217
