12
Lattice="3.0349356641028313 -5.184557216731036e-09 3.23951866091525e-09 -1.5174678298971744 2.628331255101599 2.2901148494895002e-08 1.9166947533672736e-08 1.4181747560196888e-07 14.37661017789938" Properties=species:S:1:pos:R:3:energies:R:1:forces:R:3 material_id=wbm-1-23759 free_energy=-67.2549819946289 energy=-67.2549819946289 stress="-0.003849378088489175 4.854378232721501e-09 2.9556128655627845e-09 4.854378232721501e-09 -0.003849426982924342 -1.391918580395668e-08 2.9556128655627845e-09 -1.391918580395668e-08 0.0022576977498829365" pbc="T T T"
Li       0.00000001       1.75222085       9.52525207      -3.92020440      -0.00000018       0.00000031      -0.01842433
Li       1.51746793       0.87611028       4.85135786      -3.92020488       0.00000033      -0.00000036       0.01842639
Li      -0.00000002      -0.00000011       0.00000008      -3.77286482      -0.00000011       0.00000037      -0.00000040
Li      -0.00000001       0.00000022       7.18830523      -4.01608610      -0.00000012      -0.00000006      -0.00000120
Rh       0.00000002       1.75222084       2.42045183      -6.73653889       0.00000008      -0.00000273       0.03035095
Rh       1.51746782       0.87611064      11.95615836      -6.73653841       0.00000032      -0.00000149      -0.03035226
O       -0.00000009       1.75222098      13.07687450      -6.72121239      -0.00000002      -0.00000185      -0.00272219
O        1.51746774       0.87611048       1.29973570      -6.72121286       0.00000031       0.00000035       0.00272309
O        0.00000014       0.00000024      10.84131886      -6.80256557      -0.00000031       0.00000283      -0.03074339
O        0.00000010      -0.00000023       3.53529141      -6.80256557      -0.00000035       0.00000286       0.03074294
F        0.00000002       1.75222110       6.01608056      -5.55249310      -0.00000019      -0.00000015       0.00739515
F        1.51746780       0.87611049       8.36052975      -5.55249357       0.00000032      -0.00000016      -0.00739506
