10
Lattice="4.580489671255208 1.673847303203082e-08 2.333936929716863e-09 4.249324918556147e-08 7.179658724808397 -3.467318745032828e-08 -7.434974693551356e-10 -3.467320433677657e-08 7.179657762703158" Properties=species:S:1:pos:R:3:energies:R:1:forces:R:3 material_id=wbm-1-47682 free_energy=-80.59146118164062 energy=-80.59146118164062 stress="-0.0007424411014653742 4.1948666762436915e-09 4.309254286738451e-09 4.1948666762436915e-09 0.0010465428931638598 6.752808534571386e-09 4.309254286738451e-09 6.752808534571386e-09 0.0010465268278494477" pbc="T T T"
Eu       2.29024487       2.32644423       1.26338522     -12.10181522      -0.00000006       0.03761003      -0.03760960
Eu       2.29024479       1.26338538       4.85321398     -12.10181522       0.00000010      -0.03761043      -0.03761043
Eu       2.29024485       4.85321448       5.91627253     -12.10181618       0.00000017      -0.03760992       0.03760997
Eu       2.29024484       5.91627327       2.32644366     -12.10181618       0.00000027       0.03761090       0.03761067
In       0.00105715       0.00000026      -0.00000019      -2.95563555       0.00014767      -0.00000043       0.00000124
In      -0.00105720       3.58982909       3.58982884      -2.95563531      -0.00014786      -0.00000001      -0.00000031
Rh       0.00000008       4.51985934       0.93002875      -6.56823206      -0.00000013      -0.01914742      -0.01914713
Rh       0.00000008       6.24962952       4.51985844      -6.56823254       0.00000016       0.01914756      -0.01914803
Rh       0.00000006       0.93002852       2.65979930      -6.56823254      -0.00000008      -0.01914771       0.01914791
Rh       0.00000004       2.65980007       6.24962916      -6.56823254      -0.00000025       0.01914747       0.01914576
