11
Lattice="3.9878634502895456 -0.00032944138098038795 -0.5913291865163065 -0.08747689153272828 3.986908263119901 -0.5912862848192586 0.23751202828673484 0.24289655817002945 15.384192102601064" Properties=species:S:1:pos:R:3:energies:R:1:forces:R:3 material_id=wbm-3-52265 free_energy=-63.47434997558594 energy=-63.47434997558594 stress="0.0013889932306483388 -3.532776827341877e-05 -0.0004099278594367206 -3.532776827341877e-05 0.0013866240624338388 -0.0004226136370562017 -0.0004099278594367206 -0.0004226136370562017 -0.0019443294731900096" pbc="T T T"
Pr      -0.00000390       0.00003799      -0.00000642      -9.24629402      -0.00001087       0.00000565      -0.00000095
Ni       1.04096554       3.12014736       7.10084238      -5.95319080      -0.00531806       0.00497588       0.00003263
Ni       3.09692915       1.10934728       7.10072105      -5.95319319       0.00537021      -0.00503037      -0.00002512
Bi       1.83171947       1.87240088      12.39143036      -3.53462505      -0.00239199      -0.00240164      -0.01026618
Bi       2.30616543       2.35715519       1.81013320      -3.53462529       0.00238267       0.00240849       0.01026213
Te       3.25544429       3.32777254       8.28621784      -3.01616716      -0.00901758      -0.00899965      -0.03015769
Te       0.88246257       0.90171221       5.91534693      -3.01616836       0.00899646       0.00902781       0.03015253
O        2.20648820       0.21711447       1.13867781      -7.30502129      -0.00268675      -0.00277472      -0.02146140
O        3.96907904       2.01881070      13.06286328      -7.30502224       0.00269680       0.00276709       0.02145761
O        0.16881280       2.21073848       1.13869978      -7.30502319      -0.00270492      -0.00276040      -0.02145740
O        1.93140346       4.01243446      13.06288555      -7.30502176       0.00268400       0.00278182       0.02146378
