12
Lattice="4.777330216242382 -6.194914510874234e-07 9.295726056700715e-06 1.1647568649704984e-06 6.71479705617403 0.00017714515102108393 -5.5340355585289165e-06 -0.00016180812961184168 8.275988662460305" Properties=species:S:1:pos:R:3:forces:R:3 material_id=wbm-3-60173 energy=-58.95846176147461 free_energy=-58.95846176147461 stress="-0.0007954703760333359 1.6130091040622574e-08 1.5222957472360577e-07 1.6130091040622574e-08 -0.0017984844744205475 1.33032449411985e-06 1.5222957472360577e-07 1.33032449411985e-06 -0.0007812407566234469" pbc="T T T"
Tb       3.58299502       3.35742845       2.06836726       0.00000435       0.00079981      -0.00039979
Tb       1.19434055       6.71450688       6.20649232      -0.00000514       0.00034159      -0.00079044
Tb       3.58299477       0.00012735       2.06968843       0.00000703      -0.00034564       0.00078939
Tb       1.19434026       3.35720550       6.20781409      -0.00000655      -0.00080082       0.00039158
In       1.19433020       1.67951583       3.44849059      -0.00000667       0.00087858       0.00099971
In       1.19433158       5.03697744       0.68962117       0.00001687       0.00085869      -0.00013788
In       3.58300356       1.67765536       7.58655898      -0.00001192      -0.00085643       0.00014601
In       3.58300512       5.03511784       4.82768911       0.00000374      -0.00087661      -0.00099073
Pd       1.19433945       1.67839315       0.69012846       0.00000285      -0.00035058      -0.00050508
Pd       3.58299681       5.03624042       7.58605235      -0.00000704       0.00035072       0.00050003
Pd       3.58299356       1.67888387       4.82822913       0.00000428       0.00037037      -0.00086063
Pd       1.19434146       5.03574923       3.44795186      -0.00000184      -0.00036978       0.00085759
