8
Lattice="4.604943843144744 -9.038482972651008e-09 4.444098653955986e-08 -3.8876638343025456e-08 4.818950086908927 -2.782222704227171 5.750248675293047e-08 -8.61741054816101e-07 5.564444944461322" Properties=species:S:1:pos:R:3:forces:R:3 material_id=wbm-1-22489 energy=-53.68251419067383 free_energy=-53.68251419067383 stress="-0.0026410226710140705 -1.0264440852836287e-08 -5.416582737893805e-09 -1.0264440852836287e-08 0.0027090352959930897 8.62935412015986e-09 -5.416582737893805e-09 8.62935412015986e-09 0.002709119813516736" pbc="T T T"
Ir       3.45371253       1.60631566       2.78222472       0.00000042      -0.00000139       0.00000065
Ir       1.15124054       3.21263242       0.00000234       0.00000008      -0.00000075      -0.00000092
Pt       1.15124053       0.81531265       1.41216698       0.00000012       0.01673640       0.02898666
Pt       1.15124054       3.18832176       2.78222446       0.00000010      -0.03347248       0.00000098
Pt       1.15124053       0.81531262       4.15228194      -0.00000024       0.01673754      -0.02898627
Pt       3.45371254       4.00363561       1.37006026      -0.00000025      -0.01673690      -0.02898819
Pt       3.45371256       1.63062617       0.00000271       0.00000018       0.03347167       0.00000013
Pt       3.45371252       4.00363512      -1.37005474      -0.00000037      -0.01673419       0.02898693
