10
Lattice="5.390297476513803 -0.011476948980751363 -3.0568292173241303 -1.6933348014218468 5.016098010685057 -2.850755267721666 -0.07461728422313359 -0.11669557786811222 6.245432409729673" Properties=species:S:1:pos:R:3:forces:R:3 material_id=wbm-3-22874 energy=-44.89353942871094 free_energy=-44.89353942871094 stress="-0.00040779096889309585 0.0007999374647624791 0.0008783083758316934 0.0007999374647624791 -0.00035747679066844285 0.001433931989595294 0.0008783083758316934 0.001433931989595294 -0.0005845677223987877" pbc="T T T"
K        1.77387658       2.38557928       3.29165719      -0.00000518       0.00000160       0.00000164
K        0.10742416       3.64025264       0.19393829       0.00064968      -0.00246169      -0.00293882
K        3.51493865       1.24760479       0.14394733      -0.00064668       0.00245673       0.00294040
Co       0.00000535      -0.00004017       0.00001024       0.00013556       0.00011952       0.00014339
F        3.43637660       3.70135049      -4.58635856      -0.00559233       0.02124646      -0.01590167
F       -0.17731005       4.04732663       2.86157110      -0.02095819      -0.00364709      -0.00216386
F        3.79968131       0.84053067      -2.52368755       0.02093208       0.00364682       0.00216115
F        0.18599196       1.18650915       4.92424490       0.00558705      -0.02125253       0.01588057
F        0.98939976       1.05169818       1.23043544       0.01032655      -0.00019544      -0.00478642
F        2.63298020       3.83616951      -0.89254483      -0.01042838       0.00008586       0.00466363
