3
Lattice="3.0627671007610044 3.838199768410528e-09 -1.3501013054263682e-08 -1.5313835585772257 2.6524341387506705 -2.3702633037639043e-08 -2.5504064556916862e-08 -6.631155705798376e-08 5.86170947210187" Properties=species:S:1:pos:R:3:forces:R:3 material_id=wbm-1-16651 energy=-9.627249717712402 free_energy=-9.627249717712402 stress="0.0024334355257451534 -4.657346508452065e-09 -4.559948418858539e-09 -4.657346508452065e-09 0.002433432498946786 1.573346036787271e-10 -4.559948418858539e-09 1.573346036787271e-10 0.00023846032854635268" pbc="T T T"
Au       1.53138354       0.88414469       1.85074199       0.00000004       0.00000051       0.02676769
Au      -0.00000002       1.76828940       4.01096749       0.00000011      -0.00000045      -0.02676595
F       -0.00000001      -0.00000001      -0.00000004      -0.00000016      -0.00000007      -0.00000173
