5
Lattice="6.430584418837506 1.558293918231268e-05 0.017619890442550478 0.0016118511208781468 6.437204681278761 0.0012647952654956248 -0.0014303156630819163 3.613339264973191e-05 6.4387871485696255" Properties=species:S:1:pos:R:3:forces:R:3 material_id=wbm-1-21778 energy=-23.706884384155273 free_energy=-23.706884384155273 stress="0.000718729046639055 -5.397668587647786e-07 6.312635377980769e-05 -5.397668587647786e-07 0.0007448240066878498 6.520180839686418e-09 6.312635377980769e-05 6.520180839686418e-09 0.0007571930182166398" pbc="T T T"
Cs       0.00116916       6.42366648       6.41039719      -0.00366452      -0.00655213      -0.01398851
Eu       3.10835670       3.20064894       3.17438269       0.01770332       0.01338966       0.03012848
I        3.12491837       6.42556892       3.21677365      -0.01264887       0.00975333      -0.01209507
I        6.32697718       3.27642268       3.30987069       0.01298523      -0.01414902      -0.02586818
I        3.12984782       3.20405418       6.40733646      -0.01437516      -0.00244182       0.02182327
