7
Lattice="3.5131206873666865 4.5799986921703756e-09 -1.295015759920221e-08 4.5799978336912885e-09 3.5131206470412417 -3.437923650292136e-08 -2.7879654790057757e-08 -7.280866781513392e-08 7.812914038660787" Properties=species:S:1:pos:R:3:forces:R:3 material_id=wbm-3-25526 energy=-51.51057815551758 free_energy=-51.51057815551758 stress="0.003011679509654641 -1.265565541253011e-09 3.632963374577969e-10 -1.265565541253011e-09 0.003011667402461171 -5.300244243500174e-09 3.632963374577969e-10 -5.300244243500174e-09 -0.0011729173129424453" pbc="T T T"
Fe       0.00000001       1.75656033       1.86140922      -0.00000011      -0.00000014      -0.03255443
Fe       0.00000000       1.75656028       5.95150477      -0.00000017      -0.00000013       0.03255538
Fe       1.75656031      -0.00000001       1.86140916       0.00000002       0.00000019      -0.03255416
Fe       1.75656031      -0.00000002       5.95150490       0.00000007       0.00000004       0.03255552
Fe       0.00000001      -0.00000003      -0.00000005      -0.00000017      -0.00000005      -0.00000007
Ni       1.75656033       1.75656038      -0.00000004       0.00000017       0.00000000      -0.00000004
Sb       0.00000002      -0.00000009       3.90645709       0.00000021       0.00000005      -0.00000216
