4
Lattice="3.423696549509815 -1.4160103146514569e-07 1.0552373376139312 1.5492276333568888 3.053128202667113 1.0552373404871869 -0.01467733907363513 -0.009011142028293524 6.129292840369069" Properties=species:S:1:pos:R:3:forces:R:3 material_id=wbm-2-28424 energy=-26.96586799621582 free_energy=-26.96586799621582 stress="0.0013664799043908715 -0.00023699237499386072 0.0012520381715148687 -0.00023699237499386072 0.0016069564735516906 0.0007686727331019938 0.0012520381715148687 0.0007686727331019938 -0.002310067880898714" pbc="T T T"
Ca      -0.00000002      -0.00000003       0.00000001       0.00000022       0.00000023      -0.00000249
Nd       2.47912338       1.52205846       4.11988375      -0.00000051      -0.00000014       0.00000320
N        3.74240928       2.29765314       6.10285542      -0.00622700      -0.00382342       0.02019846
N        1.21583762       0.74646381       2.13691212       0.00622717       0.00382329      -0.02019858
