7
Lattice="4.462065363686174 -1.5251759304449276e-07 1.2493991551352075 1.8205869512051536 5.360541936366525 2.0905520890646576 0.24316235653482388 -0.0320928347751803 7.724118357470055" Properties=species:S:1:pos:R:3:forces:R:3 material_id=wbm-2-49114 energy=-25.979812622070312 free_energy=-25.979812622070312 stress="-0.0012874403037130833 9.232963202521205e-05 -0.00018271275621373206 9.232963202521205e-05 -0.0006647153641097248 -0.0003297976218163967 -0.00018271275621373206 -0.0003297976218163967 -0.000686085200868547" pbc="T T T"
Sr       1.60183180       2.66375089       2.87180676      -0.00917596      -0.00749009       0.03277094
Sr       4.92398272       2.66469817       8.19226262       0.00917530       0.00748836      -0.03277156
Tl       2.23103261       0.00000008       0.62469950       0.00000230       0.00000071       0.00000046
Tl       3.21132915       4.34165047       5.71624140      -0.00042393      -0.01622332       0.00151174
Tl       3.31448589       0.98679825       5.34782828       0.00042427       0.01622329      -0.00151210
Pt       2.47196313       4.87763851       8.35678659      -0.00242227      -0.04518764       0.00865177
Pt       4.05385141       0.45081035       2.70728325       0.00242035       0.04518870      -0.00865125
