6
Lattice="3.8487085640575156 0.0006356571509679463 -0.9722048777558137 -0.24628598634365706 3.8408199469695057 -0.9722055784138603 -0.0047579616695218995 -0.005073267811093921 8.093283820290434" Properties=species:S:1:pos:R:3:forces:R:3 material_id=wbm-3-71384 energy=-43.892417907714844 free_energy=-43.892417907714844 stress="-0.0021396337542682886 4.317251296015456e-05 0.00026261716266162694 4.317251296015456e-05 -0.0021341778337955475 0.00027994377887807786 0.00026261716266162694 0.00027994377887807786 -0.0008565251482650638" pbc="T T T"
Lu       2.42277964       2.58353968       1.48977657       0.00598982       0.00638762       0.02598158
Lu       1.17488499       1.25284267       4.65909683      -0.00598913      -0.00638767      -0.02598310
Nb      -0.12314302       1.92040999      -0.48610282       0.00000022      -0.00000084      -0.00000038
Nb       1.92435428       0.00031784      -0.48610245      -0.00000045       0.00000081       0.00000168
Si       0.46053899       0.49109790       1.82352067       0.00389641       0.00415407       0.02062999
Si       3.13712564       3.34528439       4.32535269      -0.00389684      -0.00415395      -0.02062999
