6
Lattice="3.3604606025224606 -4.3649276977745196e-10 3.7205495176250254e-09 -4.364908468219725e-10 3.3604606275642674 -1.0313466283111264e-08 1.1488996233336383e-08 -3.177737618228966e-08 10.345609472405531" Properties=species:S:1:pos:R:3:forces:R:3 material_id=wbm-3-48152 energy=-28.881711959838867 free_energy=-28.881711959838867 stress="-0.0020434667821973562 -1.9379060578472718e-09 3.9632522264021475e-10 -1.9379060578472718e-09 -0.002043462824076414 -3.248431384994532e-11 3.9632522264021475e-10 -3.248431384994532e-11 0.0006132068810984492" pbc="T T T"
Tm      -0.00000003      -0.00000001      -0.00000006      -0.00000024      -0.00000006      -0.00000031
Tm       0.00000001      -0.00000005       7.03621355       0.00000020      -0.00000030       0.03799626
Tm       0.00000005       0.00000002       3.30939594      -0.00000016       0.00000019      -0.03799291
Zn       1.68023031       1.68023031       5.17280467       0.00000012       0.00000010      -0.00000154
Ni       1.68023028       1.68023027       8.69546219       0.00000014       0.00000002       0.01844038
Ni       1.68023031       1.68023031       1.65014735      -0.00000004       0.00000013      -0.01844183
