4
Lattice="4.107997114806963 -1.1700991306466076e-06 2.3717513809049047 1.3693312662952164 3.8730539971979954 2.37175138458897 -7.862317678292473e-08 -5.108288819564292e-08 4.7435028979890514" Properties=species:S:1:pos:R:3:forces:R:3 material_id=wbm-1-18667 energy=-11.001466751098633 free_energy=-11.001466751098633 stress="0.0007209268514998257 9.329713890338098e-09 -9.257087540959219e-09 9.329713890338098e-09 0.0007210361654870212 -2.1126748350752678e-08 -9.257087540959219e-09 -2.1126748350752678e-08 0.0007210471085272729" pbc="T T T"
Cd       1.36933764       0.96826122       2.37175140       0.00000130      -0.00000050      -0.00000003
Ga       4.10800005       2.90478823       7.11525414       0.00000091       0.00000003      -0.00000017
Au       0.00000491      -0.00000173       0.00000005      -0.00000237       0.00000075      -0.00000035
Au       2.73867174       1.93652371       4.74350291       0.00000015      -0.00000030       0.00000060
