5
Lattice="3.9789069956487917 -9.614200657610378e-10 1.600575551164237e-09 -9.614194703789611e-10 3.978906952494931 3.4845731276787056e-09 1.6005754959218834e-09 3.48457390818253e-09 3.978906959400639" Properties=species:S:1:pos:R:3:forces:R:3 material_id=wbm-1-39473 energy=-33.63185119628906 free_energy=-33.63185119628906 stress="0.00394224189221859 2.6190298818562496e-09 2.4970523426759428e-09 2.6190298818562496e-09 0.003942188806831837 4.176117229803822e-10 2.4970523426759428e-09 4.176117229803822e-10 0.003942200914025307" pbc="T T T"
Rb       0.00000001       0.00000000      -0.00000000      -0.00000079      -0.00000005       0.00000003
Tc       1.98945349       1.98945348       1.98945349       0.00000080      -0.00000029       0.00000007
O        1.98945349       1.98945348       0.00000000       0.00000055       0.00000002      -0.00000011
O        1.98945350       0.00000001       1.98945348      -0.00000028       0.00000007       0.00000001
O        0.00000001       1.98945347       1.98945349      -0.00000040       0.00000003       0.00000003
