12
Lattice="3.8166172410943027 -1.4443880570280059e-09 -1.0071961360456017 1.8789191707239736e-08 6.3183728371215935 7.988085309385958e-08 -0.03279423341434719 1.0054100899253701e-07 7.621576556595882" Properties=species:S:1:pos:R:3:forces:R:3 material_id=wbm-4-12109 energy=-88.73692321777344 free_energy=-88.73692321777344 stress="0.000282540189800784 -3.6620781962426463e-09 0.0006627522525377572 -3.6620781962426463e-09 -0.0023323555942624807 2.1043506936990752e-09 0.0006627522525377572 2.1043506936990752e-09 0.002817948814481497" pbc="T T T"
La       0.45043666       4.73877962       1.71073499      -0.00184075      -0.00000033      -0.00788403
La       3.33338634       1.57959335       4.90364562       0.00183902      -0.00000069       0.00788251
Fe       1.90830858       3.15918666      -0.50359809       0.00000045       0.00000033       0.00000046
Fe       1.90830864      -0.00000022      -0.50359819       0.00000129      -0.00000039       0.00000069
Fe       2.56299498       0.42926189       1.98108370      -0.00116736      -0.03034262      -0.00491013
Fe       1.22082803       5.88911108       4.63329670       0.00116787       0.03034258       0.00490971
Fe       1.22082806       3.58844836       4.63329661       0.00116731      -0.03034263       0.00490975
Fe       2.56299489       2.72992462       1.98108384      -0.00116706       0.03034283      -0.00490993
Fe       0.27515117       1.57959325       1.04566733      -0.00254103       0.00000029      -0.01069886
Fe       3.50867194       4.73877962       5.56871333       0.00254039       0.00000006       0.01069820
Co       0.87307355       1.57959334       3.31294351       0.00761930       0.00000008       0.02810608
Co       2.91074946       4.73877957       3.30143698      -0.00761971       0.00000046      -0.02810445
