6
Lattice="3.9496670344819926 1.9925206806260326e-08 -6.861954675018663e-09 1.992520542911562e-08 3.949667057947638 -1.8513663502692986e-08 -1.4826096534206485e-08 -4.0116519818399035e-08 8.672826269163625" Properties=species:S:1:pos:R:3:forces:R:3 material_id=wbm-5-2133 energy=-34.22863006591797 free_energy=-34.22863006591797 stress="0.0005693035782314837 2.0516532472925064e-08 -3.4155678285685553e-09 2.0516532472925064e-08 0.000569296651519835 1.3309588986487597e-09 -3.4155678285685553e-09 1.3309588986487597e-09 -0.001415921957232058" pbc="T T T"
Tb       2.96225027       2.96225025       6.24813144      -0.00000003      -0.00000000       0.04634297
Tb       0.98741675       0.98741680       2.42469474       0.00000004      -0.00000006      -0.04634273
As       2.96225001       0.98741659       0.00000006      -0.00000086      -0.00000090      -0.00000051
As       0.98741707       2.96225043      -0.00000001       0.00000081       0.00000084      -0.00000066
Se       2.96225026       2.96225028       3.24542782       0.00000016       0.00000008       0.01663034
Se       0.98741680       0.98741678       5.42739842      -0.00000012       0.00000003      -0.01662946
