12
Lattice="4.421736974659574 -4.353604057837028e-05 -9.433438234631375e-06 2.210939267673272 3.829295501079972 -9.410543827057523e-06 -1.911169847295494e-06 -1.0635018211168524e-06 5.886365356610319" Properties=species:S:1:pos:R:3:forces:R:3 material_id=wbm-4-16277 energy=-48.13896560668945 free_energy=-48.13896560668945 stress="-0.0025746216997504234 1.8543144051363925e-06 -3.030380355539819e-07 1.8543144051363925e-06 -0.0025769041385501623 -1.0818920515021091e-07 -3.030380355539819e-07 -1.0818920515021091e-07 -0.0005724409711547196" pbc="T T T"
Ho      -0.00000082      -0.00000058       2.94318263      -0.00000029       0.00000056      -0.00000082
Mg       4.42178705       2.55283631       0.76602859      -0.00000429      -0.00000224      -0.04488838
Mg       2.21088735       1.27641460       5.12031793       0.00000279       0.00000065       0.04488778
Mn       0.00000015       0.00000004       0.00000001      -0.00000036       0.00000210       0.00000318
H        5.56648875       3.21370820       4.85052537      -0.01182901      -0.00682985      -0.00199923
H        3.27710771       3.21373095       4.85053462       0.01182881      -0.00684083      -0.00198969
H        4.42176071       1.23106759       4.85053481      -0.00000918       0.01366558      -0.00199115
H        1.06618542       0.61554276       1.03582104       0.01182879       0.00682921       0.00199822
H        3.35556675       0.61551972       1.03581189      -0.01182687       0.00684059       0.00198853
H        2.21091350       2.59818322       1.03581179       0.00000993      -0.01366552       0.00199033
H        4.42178161       2.55283310       2.66457724      -0.00000376      -0.00000204       0.01356177
H        2.21089270       1.27641785       3.22176916       0.00000341       0.00000193      -0.01356056
