6
Lattice="3.4757725128969104 -2.5684796735854317e-08 6.331980025559038e-08 -2.5684800342791253e-08 3.4757725214531083 -1.7386340144785393e-08 1.8423573470927397e-07 -5.116857286650042e-08 10.314154152122125" Properties=species:S:1:pos:R:3:forces:R:3 material_id=wbm-4-37363 energy=-44.943782806396484 free_energy=-44.943782806396484 stress="0.0019246023148298264 5.1478355800327336e-08 -2.3423025297120148e-08 5.1478355800327336e-08 0.0019245869480073452 1.2293714490851926e-08 -2.3423025297120148e-08 1.2293714490851926e-08 -0.0022271142806857824" pbc="T T T"
Tb       0.00000007      -0.00000000      -0.00000011      -0.00000215      -0.00000291      -0.00000019
Tb       0.00000005      -0.00000006       6.93790184       0.00000099      -0.00000044       0.04527092
Tb       0.00000009      -0.00000008       3.37625230       0.00000061       0.00000007      -0.04527143
Os       1.73788626       1.73788625       8.59006388       0.00000146       0.00000257      -0.01793572
Os       1.73788638       1.73788625       1.72409039       0.00000071       0.00000092       0.01793592
Pt       1.73788632       1.73788626       5.15707715      -0.00000169      -0.00000024       0.00000021
