9
Lattice="3.530416668661924 0.00035262158843373567 1.1808958627506896 1.7640842919008966 5.538882912793911 0.5905101957167426 0.0077446924210398975 0.00011635463918236267 5.842932488740146" Properties=species:S:1:pos:R:3:forces:R:3 material_id=wbm-4-7551 energy=-62.39468002319336 free_energy=-62.39468002319336 stress="-0.003780240658670664 -2.4199574909289367e-05 -0.00019330679788254201 -2.4199574909289367e-05 -0.0032795623410493135 -9.260111255571246e-06 -0.00019330679788254201 -9.260111255571246e-06 -0.003352881409227848" pbc="T T T"
Y       -0.00000004       0.00000006      -0.00000006      -0.00000052      -0.00000081      -0.00000122
Co       4.20122316       5.53904760       5.03899752       0.01592817       0.00008962      -0.04783563
Co       1.10102245       0.00030440       2.57534105      -0.01592861      -0.00008978       0.04783639
Co       3.53755237       3.44610527       7.02373839      -0.00008407      -0.05041774       0.00006195
Co       2.38684669       3.60282998       4.59737369       0.00197882      -0.00835370      -0.00814697
Co       1.15012125       3.60269813       2.42659768      -0.00266509      -0.00840539       0.00797152
Co       0.62170775       1.93630110       4.00684500       0.00266639       0.00840567      -0.00797021
Co       2.91539896       1.93652186       3.01696487      -0.00198007       0.00835364       0.00814665
Co       1.76469334       2.09324656       0.59060019       0.00008481       0.05041828      -0.00006243
