5
Lattice="4.303950296914014 3.2412244512843606e-08 0.7957701465215118 2.0783258153538218 3.7688540444224023 0.7962200370582895 0.0046836627143074985 0.002928375341408888 12.011581631638787" Properties=species:S:1:pos:R:3:forces:R:3 material_id=wbm-2-47446 energy=-23.778812408447266 free_energy=-23.778812408447266 stress="-0.0008388868882320821 3.79400844394695e-05 -0.0003403537848498672 3.79400844394695e-05 -0.0008802938391454518 -0.0002052682393696159 -0.0003403537848498672 -0.0002052682393696159 0.0009390649502165616" pbc="T T T"
Pr       3.95001906       2.33244198       2.71002331       0.00479501       0.00240003      -0.02593562
Pr       2.43694426       1.43934102      10.89353931      -0.00479745      -0.00239828       0.02593830
Si       0.00468557       0.00292868      12.01157651      -0.00000091       0.00000001       0.00000077
I        1.44524666       0.85274868       4.22025082       0.00798187       0.00505165      -0.04316610
I        4.94171404       2.91903668       9.38331289      -0.00797852      -0.00505344       0.04316273
