6
Lattice="4.21373016838136 -0.00012120169632756566 2.433171426593929 1.404804222217337 3.972787946299731 2.433415344745648 -8.318553217300701e-05 -0.0001093830032792518 4.865868070523106" Properties=species:S:1:pos:R:3:forces:R:3 material_id=wbm-5-14487 energy=-24.889034271240234 free_energy=-24.889034271240234 stress="-0.0034049295354634523 1.386789881507866e-05 1.5065762454469223e-05 1.386789881507866e-05 -0.0033911194186657667 2.0581839635269716e-05 1.5065762454469223e-05 2.0581839635269716e-05 -0.003374539315700531" pbc="T T T"
Cd       0.00003167       0.00004672       0.00005888      -0.00003226       0.00002024      -0.00008223
Cd       1.40459118       0.99318402       2.43310990       0.00007969       0.00002310       0.00004640
Ni       1.40408202       2.48314614       4.86619637       0.00920962      -0.00320701       0.00006270
Ni       2.80917565       0.49588393       4.86609234      -0.00005124       0.00974502       0.00003810
Ni       3.51181979       2.48312948       6.08333997      -0.00458808      -0.00330449      -0.00802924
Ni       3.51189917       2.48318559       3.64936707      -0.00461777      -0.00327670       0.00796431
