12
Lattice="4.330066340535791 -3.2416865169174793e-07 4.369375149738299e-08 -4.806492665401957e-07 8.244849621126892 2.491010883507681e-06 8.008626242953543e-08 -4.0857715565977135e-06 7.622233677153308" Properties=species:S:1:pos:R:3:forces:R:3 material_id=wbm-2-18299 energy=-54.913360595703125 free_energy=-54.913360595703125 stress="-0.0003161395725328475 1.665349103063818e-08 -1.2022053574867186e-08 1.665349103063818e-08 0.00046529649989679456 -1.0215411094804949e-07 -1.2022053574867186e-08 -1.0215411094804949e-07 0.0012195733143016696" pbc="T T T"
Yb       1.08251618      -0.10863074       6.16200018       0.00000125      -0.00274785       0.02612560
Yb       1.08251648       4.01379223       5.27135762      -0.00000031      -0.00274469      -0.02612259
Yb       3.24754956       4.23105085       2.35088570       0.00000063       0.00274670       0.02612291
Yb       3.24754974       8.35347441       1.46024173      -0.00000027       0.00274671      -0.02612635
Fe       3.24755103       3.44380731       7.34507063       0.00000106       0.03271742      -0.00156753
Fe       3.24755063       7.56623430       4.08829081      -0.00000067       0.03271417       0.00156327
Fe       1.08251537       0.67860985       3.53395123      -0.00000006      -0.03271127      -0.00156133
Fe       1.08251495       4.80103735       0.27717257      -0.00000114      -0.03271908       0.00156729
Pb       3.24754851       6.00062165       6.72160747      -0.00000020       0.01476112       0.00006089
Pb       3.24754874       1.87819851       4.71174884       0.00000002       0.01476267      -0.00005753
Pb       1.08251719       6.36664516       2.91049396      -0.00000016      -0.01476571       0.00005811
Pb       1.08251737       2.24422222       0.90063474      -0.00000028      -0.01475999      -0.00006254
