12
Lattice="4.373170092665169 -1.7482068354437177e-08 2.2505883271904024e-08 -2.77873643215324e-08 6.899034752188986 6.093801772310671e-08 3.8982047983830584e-08 6.568334665257629e-08 7.5330751973329715" Properties=species:S:1:pos:R:3:forces:R:3 material_id=wbm-3-20567 energy=-53.21162414550781 free_energy=-53.21162414550781 stress="-0.00117923179641366 1.0387305238168665e-08 1.8119676870043122e-09 1.0387305238168665e-08 1.306637659581611e-05 -6.966137666708505e-10 1.8119676870043122e-09 -6.966137666708505e-10 0.0023903525434434414" pbc="T T T"
Dy       3.27987769       3.38981777       1.60726780      -0.00000095       0.00868127      -0.00936037
Dy       1.09329243       0.05969962       5.37380534       0.00000059      -0.00868191      -0.00936041
Dy       3.27987772       6.83933521       2.15926980      -0.00000078       0.00868083       0.00936013
Dy       1.09329250       3.50921694       5.92580767       0.00000015      -0.00868114       0.00936037
Ga       1.09329248       1.37304419       0.62463473       0.00000174      -0.00496526       0.01043885
Ga       3.27987765       2.07647319       4.39117234      -0.00000056       0.00496616       0.01043870
Ga       1.09329230       4.82256165       3.14190301       0.00000238      -0.00496570      -0.01043991
Ga       3.27987758       5.52599061       6.90844056      -0.00000098       0.00496573      -0.01043927
Cu       1.09329243       5.48360938       0.65274918       0.00000093      -0.00125464      -0.02078589
Cu       3.27987764       1.41542525       6.88032588      -0.00000112       0.00125518       0.02078846
Cu       1.09329257       2.03409209       3.11378860       0.00000012      -0.00125527       0.02078585
Cu       3.27987763       4.86494280       4.41928676      -0.00000156       0.00125474      -0.02078654
