32
Lattice="5.464440721738468 -0.019103321748591553 -1.5824863783020654e-07 -2.716185847813559 7.610388209731701 1.039147991077318e-07 -4.365472011505364e-07 5.536450204633697e-08 15.228069903657358" Properties=species:S:1:pos:R:3:forces:R:3 material_id=wbm-1-31839 energy=-163.32501220703125 free_energy=-163.32501220703125 stress="-0.002270233351737261 0.0005177484126761556 -2.953092916868627e-06 0.0005177484126761556 -0.0014707227237522602 -2.605237796160509e-06 -2.953092916868627e-06 -2.605237796160509e-06 -0.0020791874267160892" pbc="T T T"
As       1.07116050       2.01400804       6.24183824      -0.00460894       0.00127208       0.01052579
As       0.30282767       1.78174781      13.85594641       0.01317430      -0.00750157       0.00483302
As       1.67698502       5.57733544       8.98613978       0.01151330      -0.00465710      -0.00409730
As       2.44524489       5.80966563       1.37222817      -0.00203826      -0.00020587      -0.01203860
As       0.36874011       5.02001589       6.27138900      -0.00104305      -0.00002092       0.01136519
As      -1.71076314       6.38595761      13.88553682      -0.00108600       0.00500559       0.00307935
As       2.37954157       2.57125665       8.95658518      -0.00062232       0.00194231      -0.00475750
As       4.45904767       1.20522660       1.34273109      -0.00072211       0.00343799      -0.01622947
N        0.49416634       5.96858087       7.74329704       0.00662541       0.00407517      -0.00473326
N       -0.09933691       3.32745511       6.13939966      -0.00935185      -0.00334775       0.03202969
N        1.47351517       0.46819041      13.75341674       0.00675029       0.00517636       0.03268257
N        2.84761638       4.26380696       9.08868201       0.00763017       0.00591027      -0.03257751
N        1.27478000       7.12311482       1.47463192      -0.00979954      -0.00433543      -0.03176311
N       -1.83612157       5.43742538       0.12906772      -0.01347750      -0.00563008       0.00775935
N        2.25414339       1.62270084       7.48491969      -0.01138633      -0.00537276      -0.00438064
N        4.58448098       2.15387587      15.09873477       0.00518253       0.00237620       0.00912827
F       -2.09934297       5.64279242       2.82586706      -0.01704158       0.02480698      -0.00253111
F        0.75729284       5.76323416      10.43989338       0.01690476      -0.02460964      -0.00281128
F        4.84761710       1.94847979      12.40221798       0.01627153      -0.02430131       0.00160480
F        0.01703961       0.65711788       6.06670507       0.00026181       0.00014129      -0.00492513
F        1.99095956       1.82805038       4.78818526      -0.01668303       0.02464863       0.00202531
F        1.39115914       4.45274720       1.54733717       0.00024986       0.00026116       0.00491533
F        2.73122782       6.93417565       9.16135868      -0.00094074      -0.00086707       0.00461676
F        1.35709786       3.13852289      13.68074623      -0.00037840       0.00001681      -0.00486700
F        0.25766206       1.61503163       2.47067786       0.00176305      -0.02824697      -0.01134703
F        1.11644886       2.18058270      10.08475413       0.00081021       0.02903668      -0.01400664
F        2.49056034       5.97622186      12.75733383       0.00130057       0.02908789       0.01442379
F        1.63178743       5.41067946       5.14335020       0.00114188      -0.02837336       0.01206517
F        3.13494965       2.00454202       2.09677396       0.01247820      -0.00044176       0.00286067
F        3.70362772       1.77199125       9.71078918      -0.01296294       0.00078072       0.00225861
F       -0.38668108       5.58673839      13.13131406      -0.01261462       0.00048696      -0.00250079
F       -0.95536319       5.81928754       5.51726983       0.01269977      -0.00055127      -0.00260694
