5
Lattice="4.1336105364611235 5.236656985898078e-08 1.6995718393854407 1.3201090584513009 4.627316854005895 2.6658618566306256 0.1617607824333891 0.4130522998116496 5.483136420282549" Properties=species:S:1:pos:R:3:forces:R:3 material_id=wbm-3-77676 energy=-34.56023025512695 free_energy=-34.56023025512695 stress="-0.0009705330012366176 -0.00019287687609903514 -0.001340467482805252 -0.00019287687609903514 0.001954443519935012 0.00046908934018574655 -0.001340467482805252 0.00046908934018574655 0.0017385483952239156" pbc="T T T"
Er       4.36073996       3.49681439       7.02372186       0.00093819      -0.00178450      -0.00228091
Er       1.25474045       1.54355484       2.82484826      -0.00093909       0.00178377       0.00228309
Zn       0.00000004       0.00000006      -0.00000001      -0.00000065       0.00000045      -0.00000127
Os       2.53929603       1.54354011       5.57718072       0.01136553       0.04134285      -0.02763782
Os       3.07618428       3.49682903       4.27138941      -0.01136404      -0.04134264       0.02763709
