12
Lattice="3.0311850407520824 6.992892949753769e-09 -2.0091622521770583e-09 -1.515592507684034 2.6250830849285487 5.852068261131516e-09 -1.0298500285272406e-08 3.4401973403715445e-08 14.403533787557453" Properties=species:S:1:pos:R:3:forces:R:3 material_id=wbm-1-23759 energy=-67.2447738647461 free_energy=-67.2447738647461 stress="-0.005070935003459454 2.0870103867309808e-08 1.469133437126402e-08 2.0870103867309808e-08 -0.005070986691862345 -2.3385300806921805e-08 1.469133437126402e-08 -2.3385300806921805e-08 0.0041275061666965485" pbc="T T T"
Li       0.00000000       1.75005545       9.52098794       0.00000004       0.00000005      -0.00281183
Li       1.51559251       0.87502764       4.88254591       0.00000006      -0.00000009       0.00281243
Li      -0.00000000      -0.00000000       0.00000007      -0.00000010       0.00000001      -0.00000079
Li      -0.00000003       0.00000005       7.20176696      -0.00000018       0.00000017      -0.00000112
Rh       0.00000004       1.75005541       2.46264117      -0.00000047      -0.00000123       0.01045325
Rh       1.51559247       0.87502775      11.94089238       0.00000194      -0.00000127      -0.01044992
O       -0.00000000       1.75005532      13.08051386      -0.00000064       0.00000066      -0.01242357
O        1.51559249       0.87502770       1.32302007       0.00000146       0.00000074       0.01241872
O       -0.00000000       0.00000010      10.80974993      -0.00000134       0.00000070      -0.01113481
O        0.00000002      -0.00000007       3.59378373      -0.00000106       0.00000071       0.01113775
F       -0.00000001       1.75005540       6.05666027       0.00000001       0.00000001       0.01226918
F        1.51559250       0.87502775       8.34687349       0.00000021      -0.00000003      -0.01226930
