4
Lattice="4.1870033565684075 3.142028182393396e-08 2.1646134461163298 1.3210315354927442 3.7683198327999996 2.576492772831653 0.20238934940894945 -0.26700721629568863 4.74027797831515" Properties=species:S:1:pos:R:3:forces:R:3 material_id=wbm-4-38352 energy=-25.84840202331543 free_energy=-25.84840202331543 stress="-0.0016765075270086527 -0.0010172012262046337 -0.0014945081202313304 -0.0010172012262046337 -0.0011055388022214174 0.0019674384966492653 -0.0014945081202313304 0.0019674384966492653 0.0004413965798448771" pbc="T T T"
Ce       4.28281897       2.62598357       7.11103693       0.00000030       0.00000093       0.00000013
V        1.42760649       0.87532749       2.37034458       0.00000168      -0.00000161       0.00000061
Ge       5.50803817       3.76836013       4.74109981       0.00000544      -0.00004954      -0.00000857
Ge       2.85521029       1.75061415       4.74069604      -0.00000741       0.00005025       0.00000799
