12
Lattice="4.146169912966927 -4.880675115257872e-09 -8.323592070641561e-09 -8.24555729455794e-09 7.002696913422568 -5.1721230478472065e-09 -1.5950148131706653e-08 -6.739811214423444e-09 7.825545989591985" Properties=species:S:1:pos:R:3:forces:R:3 material_id=wbm-3-2824 energy=-52.83637619018555 free_energy=-52.83637619018555 stress="0.0005170762306079268 -2.0402853018186562e-10 -1.0555142537782558e-08 -2.0402853018186562e-10 2.6126337616005912e-05 -2.9204326068565933e-08 -1.0555142537782558e-08 -2.9204326068565933e-08 0.0018036109395325184" pbc="T T T"
Yb      -0.00000012       2.70359943       1.95638650      -0.00000062      -0.00955259      -0.00000007
Yb       0.00000000       4.29909728       5.86915940      -0.00000130       0.00955473      -0.00000003
Al      -0.00000006      -0.00000012       0.00000029      -0.00000062       0.00000449      -0.00000771
Al       2.07308489       2.11427517       4.38429662       0.00000118       0.00509544      -0.00119120
Al       2.07308493       0.40876242       1.95638642       0.00000172      -0.02450551       0.00000071
Al       0.00000019       0.00000026       3.91277322      -0.00000120      -0.00000451      -0.00000528
Al       2.07308484       6.59393433       5.86915935       0.00000124       0.02450627       0.00000137
Al       2.07308488       2.11427531       7.35402250       0.00000089       0.00509443       0.00119051
Al       2.07308479       4.88842164       0.47152361       0.00000192      -0.00509544      -0.00119294
Al       2.07308484       4.88842171       3.44124904       0.00000200      -0.00509491       0.00119351
Pt       0.00000029       5.60437852       1.95638650      -0.00000323      -0.01382858       0.00000607
Pt       0.00000011       1.39831844       5.86915941      -0.00000197       0.01382615       0.00000531
