10
Lattice="4.582041330669257 6.977097434908059e-08 -3.554420957009251e-08 1.5617310401490718e-07 7.4878677904196245 -2.0948620461224166e-07 -1.0303426262976835e-07 -2.0948619361350084e-07 7.487868360163774" Properties=species:S:1:pos:R:3:forces:R:3 material_id=wbm-2-49138 energy=-46.62565994262695 free_energy=-46.62565994262695 stress="0.0018668704433366656 4.199959047213042e-09 2.3356715672662176e-08 4.199959047213042e-09 0.0005575979012064636 -2.871110682534095e-09 2.3356715672662176e-08 -2.871110682534095e-09 0.0005576050607487559" pbc="T T T"
Sr       2.29102059       6.21262156       5.01918047      -0.00000057      -0.00966611       0.00966696
Sr       2.29102081       2.46868713       6.21262194       0.00000025      -0.00966595      -0.00966602
Sr       2.29102084       1.27524629       2.46868797       0.00000101       0.00966640      -0.00966796
Sr       2.29102060       5.01917979       1.27524635      -0.00000007       0.00966494       0.00966585
Sn       0.00000013       3.74393437       3.74393425      -0.00000043      -0.00000094      -0.00000175
Sn      -0.00000003      -0.00000039       0.00000022      -0.00000007       0.00000249      -0.00000028
Pt       0.00000005       0.99997442       4.74390772       0.00000028      -0.01463202      -0.01463109
Pt       0.00000001       4.74390775       6.48789409      -0.00000047      -0.01463203       0.01463314
Pt       0.00000006       2.74395953       0.99997387       0.00000015       0.01463214      -0.01462995
Pt       0.00000004       6.48789340       2.74395985      -0.00000009       0.01463109       0.01463100
