5
Lattice="3.9944741358963256 6.842538700286528e-09 -3.7894084943512596e-10 6.842540168223266e-09 3.994474109718739 1.0230495801062454e-09 -3.789417485556353e-10 1.023049405830239e-09 3.994474117403949" Properties=species:S:1:pos:R:3:forces:R:3 material_id=wbm-3-8983 energy=-33.823062896728516 free_energy=-33.823062896728516 stress="0.002586686285212636 -7.636278276379471e-09 5.004211267589653e-09 -7.636278276379471e-09 0.0025866662617772818 2.843829172149981e-09 5.004211267589653e-09 2.843829172149981e-09 0.0025866664946079254" pbc="T T T"
Dy      -0.00000000       0.00000000       0.00000000       0.00000003       0.00000004       0.00000009
Co       0.00000001       1.99723705       1.99723705      -0.00000005       0.00000002      -0.00000008
Co       1.99723706      -0.00000000       1.99723705       0.00000006       0.00000001       0.00000011
Co       1.99723708       1.99723705      -0.00000000       0.00000000       0.00000005       0.00000002
B        1.99723708       1.99723706       1.99723706       0.00000004      -0.00000013       0.00000003
