9
Lattice="4.715344052433863 -2.961593928281182e-05 5.298752375731389e-05 5.936772038526177e-06 4.809051648829382 2.776500057150765 -5.54471042824933e-05 -7.332476234556872e-06 5.553011049685619" Properties=species:S:1:pos:R:3:forces:R:3 material_id=wbm-1-20988 energy=-28.444555282592773 free_energy=-28.444555282592773 stress="-0.003404083428904414 -4.988798707472597e-08 -9.604996620282691e-08 -4.988798707472597e-08 -0.002107987180352211 -4.0789072386360203e-07 -9.604996620282691e-08 -4.0789072386360203e-07 -0.002108462620526552" pbc="T T T"
Ba       3.52773249       3.20600832       5.55304865      -0.02034573      -0.00000263      -0.00000245
Ba       1.18756170       1.60300620       2.77651549       0.02034793       0.00000235       0.00000255
Zn       0.00000032      -0.00000008       0.00000019      -0.00000094       0.00000115       0.00000039
H        1.02857007       1.57914345       5.55301949       0.02059350       0.03223971       0.00000158
H        1.02860125       4.01946359       4.14410006       0.02059329      -0.01611821       0.02792142
H        1.02857306       4.01945667       6.96192693       0.02059488      -0.01611638      -0.02791247
H        3.68672464       3.22987116       2.77654458      -0.02059497      -0.03223955      -0.00000187
H        3.68669319       0.78955133       4.18546367      -0.02059340       0.01611833      -0.02792078
H        3.68672151       0.78955802       1.36763731      -0.02059460       0.01611545       0.02791146
