5
Lattice="3.09768186292061 -3.267368184365645e-08 6.8480382364395296e-09 -5.2570798792171626e-08 3.9118432371483483 -0.9191400392586593 1.9957090275723154e-08 -0.4375755428104737 6.923047980412609" Properties=species:S:1:pos:R:3:forces:R:3 material_id=wbm-5-12877 energy=-44.9142951965332 free_energy=-44.9142951965332 stress="-0.001846320927143097 -2.890489181339717e-09 -5.779703382557955e-09 -2.890489181339717e-09 0.0015218771295621991 -0.00033931905636563897 -5.779703382557955e-09 -0.00033931905636563897 0.00027728325221687555" pbc="T T T"
Ta       1.54884093       2.40595575       1.45693389      -0.00000005       0.00908038       0.03514345
Ta       1.54884080       1.06831196       4.54697388       0.00000062      -0.00908068      -0.03513964
Mn       0.00000007       0.59978744       2.55362133      -0.00000035      -0.00491618      -0.02127395
Mn      -0.00000000       2.87448013       3.45028675      -0.00000023       0.00491603       0.02127115
In       0.00000003       0.00000007       0.00000003       0.00000002       0.00000036      -0.00000110
