10
Lattice="4.344927731037437 2.2882319827316844e-08 -1.5171858042492546e-08 4.029857800639459e-08 7.504247012422261 1.0206099106050647e-05 -2.6718225171089217e-08 -8.430198698338775e-06 7.504243915463387" Properties=species:S:1:pos:R:3:forces:R:3 material_id=wbm-4-14446 energy=-45.24991989135742 free_energy=-45.24991989135742 stress="-0.0004439717740751803 -4.538079245719473e-09 3.5944577869706507e-10 -4.538079245719473e-09 0.0018556113354861736 8.326671263603203e-08 3.5944577869706507e-10 8.326671263603203e-08 0.001855414710007608" pbc="T T T"
Nd       2.17246386       2.40206105       1.35005022       0.00000001       0.00136173      -0.00135577
Nd       2.17246391       6.15418780       2.40206884      -0.00000023       0.00133395       0.00133874
Nd       2.17246395       1.35005251       5.10216762       0.00000056      -0.00134377      -0.00133388
Nd       2.17246380       5.10217474       6.15418791      -0.00000065      -0.00135969       0.00135779
Hg       0.00000011       7.50423773       7.50424480      -0.00000008       0.00000303       0.00000040
Hg      -0.00000003       3.75211929       3.75211422       0.00000043      -0.00000167       0.00000955
Ge       0.00000005       4.64411789       0.89199716      -0.00000002       0.00937584       0.00937101
Ge       0.00000000       0.89199000       2.86011799      -0.00000033       0.00938123      -0.00937764
Ge      -0.00000003       6.61224444       4.64412287       0.00000023      -0.00937355       0.00936975
Ge      -0.00000011       2.86011927       6.61224348       0.00000010      -0.00937719      -0.00937992
