6
Lattice="3.3717520547553232 1.1883700699587838e-07 -8.95330066555598e-08 2.2589413391691214e-07 6.748225096461682 -0.0846584759532501 -1.5520704628559868e-07 0.009889898014740722 5.899046554624914" Properties=species:S:1:pos:R:3:forces:R:3 material_id=wbm-4-33053 energy=-30.3439884185791 free_energy=-30.3439884185791 stress="0.000939223391469568 -5.66006042035383e-09 -4.5847269092291754e-08 -5.66006042035383e-09 -0.0015916179399937391 -0.00010193065827479586 -4.5847269092291754e-08 -0.00010193065827479586 0.00010633106285240501" pbc="T T T"
Cr       1.68587687       0.00559074       2.94908259       0.00001325       0.00610852      -0.00405136
S        0.00000009       5.46638443       3.85311850      -0.00000691       0.01935655      -0.01748164
S        1.68589538       1.37595924       4.79092826       0.00024709       0.01333582      -0.03642609
S        1.68589538       5.38212680       1.02361948       0.00024761      -0.01338881       0.03746963
S       -0.00000016       1.29232818       1.96332052      -0.00000633      -0.01381433       0.03740246
S       -0.00003937      -0.00121397      -0.00176991      -0.00049482      -0.01159815      -0.01691267
