4
Lattice="4.1187668137694775 2.7026230278280813e-07 2.3781023686700133 1.3727530264817702 3.8832381303606867 2.378264888083488 -4.2232986786998405e-05 -0.00010322989661362236 4.75588473075186" Properties=species:S:1:pos:R:3:forces:R:3 material_id=wbm-3-15536 energy=-28.653051376342773 free_energy=-28.653051376342773 stress="-0.0021050162613391876 -3.3881785839184886e-06 3.4918004985229345e-06 -3.3881785839184886e-06 -0.002102310536429286 5.823147148475982e-06 3.4918004985229345e-06 5.823147148475982e-06 -0.002109122695401311" pbc="T T T"
Tb       1.37286947       0.97078374       2.37806311      -0.00000086       0.00000040       0.00000039
Eu       4.11860814       2.91235132       7.13418894       0.00000024      -0.00000018       0.00000065
Co       5.49149135       3.88320996       4.75641444       0.00010153       0.00009840      -0.00016726
Co       2.74576730       1.94159611       4.75607876      -0.00010099      -0.00009867       0.00016620
