7
Lattice="3.927755276773297 4.390602165319232e-09 1.45155063590688 1.594388393431698 5.542128245186877 1.725577446424739 0.008671417937189951 -0.12970620769495766 6.01637398841827" Properties=species:S:1:pos:R:3:forces:R:3 material_id=wbm-3-12121 energy=-63.22282791137695 free_energy=-63.22282791137695 stress="-0.001021488569676876 -0.0003911792009603232 2.8815999030484818e-05 -0.0003911792009603232 -0.0022717099636793137 0.0010585517156869173 2.8815999030484818e-05 0.0010585517156869173 -0.0010887363459914923" pbc="T T T"
Eu       2.51718485       0.90987566       5.26841766      -0.00272218       0.02111594       0.00736561
Eu       3.01363021       4.50254640       3.92508442       0.00272261      -0.02111487      -0.00736611
Si       1.29843837       2.13533215       2.52638958      -0.01238646       0.01042283       0.03351569
Si       4.23237673       3.27708996       6.66711237       0.01238865      -0.01042539      -0.03351229
Ru       1.88916759       3.72337121       6.96777181      -0.00339006      -0.03316572       0.00916299
Ru       3.64164752       1.68905068       2.22573047       0.00338854       0.03316563      -0.00916736
C       -0.00000001       0.00000006      -0.00000006      -0.00000104       0.00000152       0.00000136
