8
Lattice="4.550214875498312 2.427922141766568e-09 -1.6856913159395767e-08 2.427925934372737e-09 4.55021490491724 -1.9559347563816296e-08 -1.685691755269212e-08 -1.955934600682049e-08 4.550214866902512" Properties=species:S:1:pos:R:3:forces:R:3 material_id=wbm-1-31414 energy=-54.97010803222656 free_energy=-54.97010803222656 stress="0.0015467195771634579 -3.1477118689338113e-09 1.4827473471257235e-08 -3.1477118689338113e-09 0.00154675985686481 1.4299160966402269e-08 1.4827473471257235e-08 1.4299160966402269e-08 0.001546755782328546" pbc="T T T"
Al       2.27510744       2.27510746      -0.00000004      -0.00000080       0.00000121       0.00000044
Al       2.27510742       0.00000003       2.27510745       0.00000015      -0.00000036       0.00000033
Al       0.00000002       2.27510744       2.27510746       0.00000091       0.00000109      -0.00000054
In       0.00000008       0.00000011      -0.00000000      -0.00000101      -0.00000140      -0.00000125
N        3.32552958       3.32552958       1.22468518      -0.00236195      -0.00236139       0.00236115
N        3.32552961       1.22468525       3.32552956      -0.00236154       0.00235906      -0.00236177
N        1.22468525       3.32552959       3.32552963       0.00236142      -0.00236157      -0.00236160
N        1.22468524       1.22468525       1.22468520       0.00236276       0.00236288       0.00236267
