5
Lattice="3.4705654214647 -1.5861542513811727e-08 3.4554136507482627e-09 -1.7352827234639594 3.0055978154918606 6.782259844911829e-09 1.013890284883053e-08 2.8847539215513157e-08 10.223489500186897" Properties=species:S:1:pos:R:3:forces:R:3 material_id=wbm-2-29367 energy=-36.13341522216797 free_energy=-36.13341522216797 stress="-0.0017488322919234633 -1.9287375252474703e-08 2.1043151221533662e-08 -1.9287375252474703e-08 -0.0017488281009718776 2.2672272947943384e-08 2.1043151221533662e-08 2.2672272947943384e-08 -0.0022663932759314775" pbc="T T T"
Zr      -0.00000002       2.00373190       3.96367808       0.00000087      -0.00000095      -0.04352093
Zr       1.73528273       1.00186595       6.25981154      -0.00000201      -0.00000104       0.04351842
Br      -0.00000000       2.00373189       8.19269222       0.00000030      -0.00000005      -0.00793639
Br       1.73528272       1.00186591       2.03079721      -0.00000012       0.00000076       0.00793999
N        0.00000000       0.00000002       5.11174474       0.00000091       0.00000134      -0.00000093
