7
Lattice="3.738337567724978 9.372419145997902e-08 1.3851719155633218 1.4575810054357696 5.363820706953374 1.8033899102874176 -0.03451062964518597 0.015398571941895828 5.830284509616576" Properties=species:S:1:pos:R:3:forces:R:3 material_id=wbm-4-5281 energy=-53.09823989868164 free_energy=-53.09823989868164 stress="0.0009467825875617564 -4.126884232391603e-05 0.0015050232177600265 -4.126884232391603e-05 -0.00048478171811439097 0.0001114040132961236 0.0015050232177600265 0.0001114040132961236 -0.002557438099756837" pbc="T T T"
Dy       2.32719065       0.85528396       5.19361220       0.00096762       0.01393194      -0.00261091
Dy       2.83421720       4.52393541       3.82523577      -0.00096840      -0.01393258       0.00261144
Si       1.10045070       2.18048404       2.76722268      -0.00442035      -0.00383960       0.01193240
Si       4.06095717       3.19873536       6.25162551       0.00442173       0.00384098      -0.01193342
Ir       1.75896219       3.72145844       6.72716185      -0.00210223      -0.00450376       0.00567478
Ir       3.40244582       1.65776081       2.29168604       0.00209953       0.00451034      -0.00566980
C        0.00000005       0.00000016       0.00000082       0.00000215      -0.00000717      -0.00000445
