8
Lattice="4.279813213044467 -6.818717691387259e-08 -6.764137452310426e-08 -2.139906658926673 3.706426971876433 3.7589717480308034e-08 -2.8260233231471503e-07 -2.118609747448582e-09 17.94575458266006" Properties=species:S:1:pos:R:3:forces:R:3 material_id=wbm-3-79190 energy=-39.4326057434082 free_energy=-39.4326057434082 stress="0.00035003808443434536 -5.887148990524338e-09 -3.4592988473747255e-09 -5.887148990524338e-09 0.00035002341610379517 -1.6516669143484819e-09 -3.4592988473747255e-09 -1.6516669143484819e-09 -0.0013185032876208425" pbc="T T T"
Cs       2.13990620       1.23547578      13.45931623       0.00000129      -0.00000053      -0.00000119
Cs       0.00000017       2.47095111       4.48643856      -0.00000111       0.00000121      -0.00000128
Zr      -0.00000004       0.00000004      -0.00000018      -0.00000013       0.00000070      -0.00000039
Zr      -0.00000019      -0.00000006       8.97287731       0.00000021       0.00000020      -0.00000162
Te       2.13990644       1.23547563       7.31537247      -0.00000076      -0.00000026       0.03762519
Te      -0.00000032       2.47095129      16.28824994      -0.00000053       0.00000071       0.03762779
Te      -0.00000025       2.47095124      10.63038205       0.00000034      -0.00000098      -0.03762245
Te       2.13990666       1.23547571       1.65750460       0.00000070      -0.00000103      -0.03762600
