4
Lattice="4.250310795746594 -2.8431622120613e-08 2.4539180707401043 1.4167702193135148 4.007231301244805 2.4539181038177995 -1.3946333736482396e-08 3.065019051477847e-08 4.907836165635969" Properties=species:S:1:pos:R:3:forces:R:3 material_id=wbm-2-19357 energy=-26.45545768737793 free_energy=-26.45545768737793 stress="0.0002796253829728812 -1.2449069330955354e-08 -2.7471198649209327e-09 -1.2449069330955354e-08 0.00027972282259725034 -2.6190154045480085e-08 -2.7471198649209327e-09 -2.6190154045480085e-08 0.00027964188484475017" pbc="T T T"
Gd       4.25031079       3.00542346       7.36175424      -0.00000097      -0.00000038      -0.00000186
Au       0.00000001       0.00000007       0.00000001       0.00000062       0.00000036       0.00000099
Au       2.83354046       2.00361559       4.90783618       0.00000030       0.00000010       0.00000096
Au       1.41677024       1.00180783       2.45391808       0.00000001      -0.00000006      -0.00000012
