10
Lattice="3.4488601581432667 -4.107241682697026e-09 -2.6018654658439316e-09 -1.7244300774008596 2.986800567427378 -9.623750738466698e-09 -9.481141665890375e-09 -4.6227511608034265e-08 12.637116122597389" Properties=species:S:1:pos:R:3:forces:R:3 material_id=wbm-3-43791 energy=-84.89220428466797 free_energy=-84.89220428466797 stress="-0.001939847250469029 2.2944248723177907e-09 -3.776471135807924e-09 2.2944248723177907e-09 -0.0019399105804041028 2.3025947371024813e-08 -3.776471135807924e-09 2.3025947371024813e-08 -0.0036846711300313473" pbc="T T T"
Ti       1.72443008       0.99560019       5.12451204      -0.00000016       0.00000024      -0.03033197
Ti      -0.00000000       1.99120030      11.44307023      -0.00000009      -0.00000017      -0.03032914
Ti      -0.00000001       1.99120031       7.51260393      -0.00000005       0.00000085       0.03033414
Ti       1.72443009       0.99560013       1.19404580       0.00000001       0.00000023       0.03032637
Se      -0.00000004       0.00000004       9.47783716       0.00000022      -0.00000121      -0.00000184
Se       0.00000002       0.00000005       3.15927899       0.00000002       0.00000029       0.00000032
N       -0.00000004       1.99120043       5.46308396       0.00000005      -0.00000041       0.00788432
N        1.72443010       0.99560013      11.78164207       0.00000004       0.00000054       0.00788596
N        1.72443009       0.99560014       7.17403219       0.00000005      -0.00000047      -0.00788484
N       -0.00000002       1.99120033       0.85547409      -0.00000012      -0.00000023      -0.00788361
