12
Lattice="6.376145094439502 -3.579228492419448e-08 -2.0720911752387857e-08 -3.579228739654097e-08 6.376145088178984 -3.600447306433568e-08 -2.072091043223349e-08 -3.6004474780541405e-08 6.376145106589357" Properties=species:S:1:pos:R:3:forces:R:3 material_id=wbm-1-46378 energy=-75.1736068725586 free_energy=-75.1736068725586 stress="-0.001211429014801979 -3.174315921228299e-08 1.2356311529515551e-08 -3.174315921228299e-08 -0.0012114618439227343 -1.9321344524314554e-08 1.2356311529515551e-08 -1.9321344524314554e-08 -0.0012114887358620763" pbc="T T T"
Sr       3.95456985       2.42157511       5.60964770       0.02870338      -0.02870146      -0.02870307
Sr       2.42157510       5.60964765       3.95456988      -0.02870219      -0.02870296       0.02870304
Sr       0.76649728       0.76649722       0.76649727       0.02870430       0.02870372       0.02870414
Sr       5.60964768       3.95456984       2.42157513      -0.02870305       0.02870277      -0.02870255
P        1.01140728       2.17666522       4.19947992      -0.00094440       0.00094608      -0.00094899
P        4.19947991       1.01140719       2.17666510      -0.00094731      -0.00094185       0.00094910
P        2.17666510       4.19947979       1.01140724       0.00094882      -0.00094175      -0.00094697
P        5.36473793       5.36473784       5.36473790       0.00094431       0.00094426       0.00094455
Ru       3.78133907       5.78287867       0.59326649       0.00560790      -0.00561723       0.00561104
Ru       0.59326639       3.78133916       5.78287859       0.00561124       0.00561381      -0.00560889
Ru       2.59480599       2.59480585       2.59480601      -0.00560866      -0.00561644      -0.00560983
Ru       5.78287864       0.59326655       3.78133907      -0.00561430       0.00561115       0.00560849
