10
Lattice="4.328198136579357 -8.327118501789155e-08 7.070712090451628e-08 -1.7334879700885947e-07 7.336675837600626 -5.2662314211613764e-08 1.39463251499732e-07 -5.2662292199302305e-08 7.3366753755239404" Properties=species:S:1:pos:R:3:forces:R:3 material_id=wbm-1-47682 energy=-80.77284240722656 free_energy=-80.77284240722656 stress="-0.00012356748629827052 -1.5485376536616968e-08 7.40893124628883e-09 -1.5485376536616968e-08 -0.00035659963032230735 8.974509468906433e-10 7.40893124628883e-09 8.974509468906433e-10 -0.00035661793663166463" pbc="T T T"
Eu       2.16409910       2.41350151       1.25483629       0.00000039      -0.03639482       0.03639416
Eu       2.16409887       1.25483679       4.92317419      -0.00000007       0.03639057       0.03639036
Eu       2.16409907       4.92317456       6.08183948       0.00000089       0.03639528      -0.03639682
Eu       2.16409871       6.08183880       2.41350073      -0.00000011      -0.03638974      -0.03639005
In       0.00000007       0.00000019      -0.00000012       0.00000037      -0.00000196       0.00000103
In       0.00000003       3.66833788       3.66833764       0.00000008       0.00000093       0.00000140
Rh       0.00000032       4.58683065       0.91849383      -0.00000082       0.03433818       0.03433583
Rh       0.00000006       6.41818227       4.58683114      -0.00000031      -0.03433457       0.03433369
Rh      -0.00000012       0.91849373       2.74984418       0.00000024       0.03433369      -0.03433346
Rh       0.00000015       2.74984462       6.41818173      -0.00000061      -0.03433742      -0.03433622
