7
Lattice="3.746601474426779 -6.732337929568729e-08 2.046158342023437e-08 -6.732337688664868e-08 3.746601374717559 3.016979873184795e-08 4.7364028118598604e-08 5.3324891926783486e-08 8.188932689827615" Properties=species:S:1:pos:R:3:forces:R:3 material_id=wbm-2-52291 energy=-49.607059478759766 free_energy=-49.607059478759766 stress="0.0022861571051180363 -5.096988431319005e-08 -1.050290632242934e-09 -5.096988431319005e-08 0.0022861866746097803 -1.475501276715363e-09 -1.050290632242934e-09 -1.475501276715363e-09 0.0013143703108653426" pbc="T T T"
Zn       1.87330073       1.87330076      -0.00000016       0.00000071      -0.00000103       0.00000277
Sb       0.00000005      -0.00000001       4.09446644       0.00000013      -0.00000013      -0.00000052
Ru      -0.00000009       1.87330071       2.02129257       0.00000042      -0.00000014      -0.04632916
Ru      -0.00000000       1.87330071       6.16764040      -0.00000033      -0.00000008       0.04632626
Ru       1.87330070       0.00000000       2.02129252      -0.00000064       0.00000010      -0.04632821
Ru       1.87330084       0.00000003       6.16764064      -0.00000022       0.00000042       0.04632479
Ru       0.00000005      -0.00000007      -0.00000042      -0.00000005       0.00000077       0.00000412
