6
Lattice="3.571020524414922 -1.395199482751331e-08 -2.9002223597144237e-09 -1.3951993842776555e-08 3.571020523426053 3.559708594199746e-09 -6.769613457395281e-09 7.636361442520383e-09 8.26850621539081" Properties=species:S:1:pos:R:3:forces:R:3 material_id=wbm-1-55710 energy=-39.170875549316406 free_energy=-39.170875549316406 stress="0.0009315917850472033 -5.621843879310973e-09 -1.8285319924871146e-08 -5.621843879310973e-09 0.0009316147188656032 -1.3417728261799766e-08 -1.8285319924871146e-08 -1.3417728261799766e-08 -0.0026246800553053617" pbc="T T T"
Sc       2.67826537       2.67826538       5.89507873       0.00000060       0.00000067       0.02292576
Sc       0.89275512       0.89275512       2.37342757       0.00000002      -0.00000097      -0.02292651
Si       2.67826542       0.89275511      -0.00000004      -0.00000026      -0.00000006       0.00000004
Si       0.89275511       2.67826537       0.00000004       0.00000031      -0.00000003       0.00000087
S        0.89275513       0.89275513       5.20342111      -0.00000057      -0.00000067      -0.00585543
S        2.67826540       2.67826538       3.06508503      -0.00000007       0.00000097       0.00585554
