5
Lattice="3.2264361217700697 8.312489704040181e-10 5.242642646552877e-09 -9.372032569255228e-10 3.9128522402966124 -1.2239887448242888 1.1681909218049843e-08 -0.0199811353205187 6.801154390174431" Properties=species:S:1:pos:R:3:forces:R:3 material_id=wbm-5-11711 energy=-19.656944274902344 free_energy=-19.656944274902344 stress="-0.0017369583947584033 2.147309663413921e-09 -3.482794053155658e-09 2.147309663413921e-09 0.0014073977945372462 -0.0007857367163524032 -3.482794053155658e-09 -0.0007857367163524032 -0.0009015063405968249" pbc="T T T"
Mg       1.61321806       2.53280876       1.23029481       0.00000011       0.01554623       0.04940641
Mg       1.61321806       1.36006230       4.34687076      -0.00000014      -0.01554629      -0.04940674
Ni       0.00000002       0.73456429       2.34781176       0.00000003      -0.01016364      -0.03256592
Ni       0.00000003       3.15830681       3.22935395       0.00000004       0.01016366       0.03256586
Sn      -0.00000003       0.00000004       0.00000006       0.00000000       0.00000001       0.00000067
