6
Lattice="4.276365127374462 -1.514762091409787e-08 -1.9866294834159325e-08 -4.484219303603847e-09 4.92555649055373 -2.843771389561574 -2.8340461893146244e-08 6.488366084016985e-09 5.687542776550469" Properties=species:S:1:pos:R:3:forces:R:3 material_id=wbm-4-16842 energy=-38.04399108886719 free_energy=-38.04399108886719 stress="0.0003565209044609219 -1.1433630930923755e-08 9.968513126068501e-09 -1.1433630930923755e-08 0.002231375779956579 -2.3779763935749543e-08 9.968513126068501e-09 -2.3779763935749543e-08 0.002231394639238715" pbc="T T T"
Sm      -0.00000004       0.00000001       0.00000003      -0.00000007      -0.00000104       0.00000044
In      -0.00000007       3.28370433      -0.00000003       0.00000016       0.00000020      -0.00000023
In       0.00000005       1.64185217       2.84377139      -0.00000011      -0.00000035      -0.00000139
Ir       2.13818256       2.46277825       1.42188566       0.00000005       0.00000019      -0.00000013
Ir       2.13818256       2.46277825      -1.42188568       0.00000003       0.00000087       0.00000190
Ir       2.13818257      -0.00000003       2.84377139       0.00000007      -0.00000012      -0.00000037
