4
Lattice="4.03230597964673 8.900390500626184e-08 2.32805287596329 1.3441020790987428 3.8016944921058378 2.328052872552061 -9.359287711262127e-09 -1.0795902163964209e-08 4.6561057681373414" Properties=species:S:1:pos:R:3:forces:R:3 material_id=wbm-1-34196 energy=-37.543067932128906 free_energy=-37.543067932128906 stress="0.0022155651822686195 -6.517346662349155e-09 -1.122657238283864e-07 -6.517346662349155e-09 0.0022154708858579397 -3.564205641737317e-08 -1.122657238283864e-07 -3.564205641737317e-08 0.0022155195474624634" pbc="T T T"
Tb       4.03230594       2.85127088       6.98415857       0.00000264      -0.00000122       0.00000162
Nb       1.34410204       0.95042363       2.32805290      -0.00000123       0.00000056      -0.00000010
Os       0.00000004       0.00000002       0.00000002      -0.00000034       0.00000137       0.00000184
Os       2.68820405       1.90084732       4.65610578      -0.00000116      -0.00000072      -0.00000316
