8
Lattice="4.308215838536982 -4.586297546879907e-08 -3.520902124886933e-08 -4.5862979486179384e-08 4.308215739491769 1.0309461272660575e-07 -9.147349164269228e-08 2.2660532714918445e-07 10.793792039822211" Properties=species:S:1:pos:R:3:forces:R:3 material_id=wbm-2-37029 energy=-42.607810974121094 free_energy=-42.607810974121094 stress="-0.0003728138981387019 2.5190518559981e-09 2.2989956605101725e-09 2.5190518559981e-09 -0.0003728117444552481 1.4426283279078689e-08 2.2989956605101725e-09 1.4426283279078689e-08 2.190272425650619e-05" pbc="T T T"
La       3.23116180       3.23116189       9.66619347      -0.00000022       0.00000016       0.04341769
La       1.07705401       1.07705389       1.12759847      -0.00000022      -0.00000094      -0.04341733
Cd       3.23116172       1.07705415       5.39689644      -0.00000058      -0.00000005      -0.00000119
Cd       1.07705391       3.23116193       5.39689617       0.00000057       0.00000054      -0.00000112
Bi       1.07705385       1.07705414       7.56157320      -0.00000001      -0.00000029       0.02730235
Bi       3.23116181       3.23116205       3.23221918      -0.00000038      -0.00000020      -0.02730004
O        1.07705392       3.23116168      -0.00000013       0.00000101       0.00000024      -0.00000005
O        3.23116185       1.07705374      -0.00000023      -0.00000012       0.00000046      -0.00000039
