9
Lattice="4.40789778674803 2.0451153648226256e-08 3.841732093736802e-08 -5.433301675248489e-09 6.421750547425151 -3.707599385319746 6.116211545369707e-08 -2.057658070167882e-07 7.4151984316217785" Properties=species:S:1:pos:R:3:forces:R:3 material_id=wbm-4-13248 energy=-33.52223587036133 free_energy=-33.52223587036133 stress="-0.001957280794158578 -8.234881221369506e-09 4.151300483923315e-11 -8.234881221369506e-09 0.0001318461145274341 -1.8307186877564163e-08 4.151300483923315e-11 -1.8307186877564163e-08 0.00013188875163905323" pbc="T T T"
Sr       0.00000001      -0.00000016       4.33326491       0.00000014       0.00000109       0.00580980
Sr       0.00000004       3.75271781      -2.16663237       0.00000018       0.00503213      -0.00290542
Sr       0.00000017       2.66903249       1.54096648      -0.00000097      -0.00503144      -0.00290555
Ga       2.20394884       4.94070524       2.85251738      -0.00000009       0.01734249       0.01001314
Ga       2.20394910       1.48104508      -0.85508155      -0.00000048      -0.01734280       0.01001347
Ga       2.20394875      -0.00000007       1.71016334       0.00000054      -0.00000009      -0.02002503
Ge       2.20394890       2.14058356       3.70759904       0.00000018      -0.00000088      -0.00000002
Ge       2.20394886       4.28116744       0.00000016       0.00000020      -0.00000110       0.00000004
Pd      -0.00000001      -0.00000032      -0.00000005       0.00000026       0.00000071      -0.00000030
