5
Lattice="4.720194642631536 -1.812315028395757e-09 1.4422250570860716e-09 -1.8123163232053246e-09 4.720194687083293 -1.397878350019865e-08 1.4422230751735695e-09 -1.3978786878003414e-08 4.720194632286252" Properties=species:S:1:pos:R:3:forces:R:3 material_id=wbm-3-45540 energy=-31.410247802734375 free_energy=-31.410247802734375 stress="-0.0018254027236253023 -5.32436539302239e-10 2.655024422537622e-09 -5.32436539302239e-10 -0.0018255033064633608 -8.699713838211665e-09 2.655024422537622e-09 -8.699713838211665e-09 -0.0018254207680001855" pbc="T T T"
Tm       2.36009732       2.36009735      -0.00000003      -0.00000004      -0.00000004      -0.00000011
Tm       2.36009733      -0.00000006       2.36009733       0.00000000       0.00000004      -0.00000003
Tm      -0.00000000       2.36009735       2.36009732       0.00000004      -0.00000012      -0.00000005
Sn      -0.00000002       0.00000002      -0.00000003       0.00000006       0.00000005      -0.00000003
N        2.36009734       2.36009734       2.36009733      -0.00000011       0.00000005       0.00000011
