12
Lattice="4.340368555642279 1.788419496287148e-09 -1.1245930023281973e-09 2.821036794983711e-09 6.935089974762859 -7.943275016099251e-09 -1.9961551631936015e-09 -8.462217981132095e-09 7.470838920183062" Properties=species:S:1:pos:R:3:energies:R:1:forces:R:3 material_id=wbm-3-20567 energy=-53.283607652432906 free_energy=-53.283607652432906 stress="0.0011974923828011249 1.5473394898755617e-10 1.2213042691622847e-09 1.5473394898755617e-10 0.0002272844552009529 1.584282490222704e-09 1.2213042691622847e-09 1.584282490222704e-09 0.002456654075011928" pbc="T T T"
Dy       3.25527643       3.40982456       1.55855561      -3.76179675       0.00000004      -0.00149457       0.01707889
Dy       1.08509214       0.05772039       5.29397509      -3.76179672      -0.00000004       0.00149460       0.01707889
Dy       3.25527641       6.87736959       2.17686382      -3.76179665       0.00000000      -0.00149499      -0.01707883
Dy       1.08509214       3.52526531       5.91228330      -3.76179594      -0.00000004       0.00149516      -0.01707869
Ga       1.08509218       1.35708729       0.61247105      -4.34224099      -0.00000042       0.00033594       0.00959391
Ga       3.25527641       2.11045762       4.34789055      -4.34224125       0.00000014      -0.00033603       0.00959370
Ga       1.08509215       4.82463233       3.12294840      -4.34224119      -0.00000010       0.00033590      -0.00959390
Ga       3.25527641       5.57800265       6.85836784      -4.34224062       0.00000008      -0.00033587      -0.00959384
Cu       1.08509213       5.52979239       0.66955852      -5.21686452      -0.00000010      -0.00049548      -0.03142209
Cu       3.25527638       1.40529768       6.80128042      -5.21686378       0.00000037       0.00049526       0.03142189
Cu       1.08509215       2.06224735       3.06586091      -5.21686458      -0.00000006      -0.00049554       0.03142222
Cu       3.25527641       4.87284265       4.40497795      -5.21686464       0.00000014       0.00049561      -0.03142215
