4
Lattice="4.039901155132538 -7.741821570650423e-10 2.332438022609123 1.3466337177326724 3.8088553398954033 2.3324380224617824 3.7178827324547267e-09 2.4484907195676037e-09 4.664876038778667" Properties=species:S:1:pos:R:3:energies:R:1:forces:R:3 material_id=wbm-1-34196 energy=-37.45774598151536 free_energy=-37.45774598151536 stress="-0.0027650831490632433 -1.7244322930112851e-09 -4.500565428703574e-10 -1.7244322930112851e-09 -0.0027650878664547134 -7.015312275612457e-10 -4.500565428703574e-10 -7.015312275612457e-10 -0.0027650849398707846" pbc="T T T"
Tb       4.03990116       2.85664151       6.99731406      -2.80651572       0.00000003      -0.00000017      -0.00000000
Nb       1.34663372       0.95221383       2.33243802      -8.95882790      -0.00000005      -0.00000015      -0.00000002
Os       0.00000000       0.00000001       0.00000000     -12.84620057       0.00000004       0.00000020       0.00000005
Os       2.69326744       1.90442767       4.66487604     -12.84620179      -0.00000002       0.00000012      -0.00000003
