7
Lattice="4.344445132312449 1.350144730850796e-09 1.2164649273481312 1.7102592950125712 5.265447046350706 2.258073810749325 0.03354842665916381 0.0857921390537912 8.246227352329338" Properties=species:S:1:pos:R:3:energies:R:1:forces:R:3 material_id=wbm-2-49114 energy=-26.007728715791544 free_energy=-26.007728715791544 stress="-0.0011726877166690762 0.0001203400904275004 0.00011477402068072075 0.0001203400904275004 -0.0006367144335068806 -0.000429774398872838 0.00011477402068072075 -0.000429774398872838 -0.0015504430081373767" pbc="T T T"
Sr       1.49195078       2.70657845       3.03773418      -1.88803614      -0.00341936      -0.04526403       0.01221137
Sr       4.59630206       2.64466075       8.68303192      -1.88803616       0.00341938       0.04526405      -0.01221127
Tl       2.17222252      -0.00000001       0.60823248      -2.31485073       0.00000013       0.00000007       0.00000001
Tl       3.01556778       4.33859792       5.96237629      -2.15143613      -0.00118202       0.00308542       0.00422152
Tl       3.07268511       1.01264122       5.75838978      -2.15143604       0.00118192      -0.00308525      -0.00422125
Pt       2.24608319       4.83557971       8.71049042      -7.80696679      -0.00286193       0.03620548       0.01021966
Pt       3.84216969       0.51565952       3.01027567      -7.80696673       0.00286188      -0.03620574      -0.01022005
