12
Lattice="5.745985790768592 1.0869002738204055e-07 -1.1497895213913982e-05 1.09179885692994e-07 5.775112040276417 -1.1768607822284283e-09 2.103573767607909e-06 -1.4514319970555795e-09 5.823102768483583" Properties=species:S:1:pos:R:3:energies:R:1:forces:R:3 material_id=wbm-2-39104 energy=-55.02805599886342 free_energy=-55.02805599886342 stress="0.0003998463105401227 1.4471807372851276e-08 -2.3018083522180325e-07 1.4471807372851276e-08 -0.0005224452384031704 -6.611737048431848e-09 -2.3018083522180325e-07 -6.611737048431848e-09 -0.0027613653080586346" pbc="T T T"
Cu       2.91278528       2.92707322       1.46246807      -3.46706988       0.00413025       0.00212224       0.04567089
Cu       2.91278619       0.03951704       4.36062293      -3.46707124       0.00412814       0.00212305      -0.04567112
Cu       0.03979214       5.73559345       1.46247401      -3.46707119       0.00413152      -0.00212086       0.04567082
Cu       0.03979345       2.84803827       4.36062857      -3.46707093       0.00412861      -0.00212310      -0.04567019
P        2.29530536       5.19284849       2.12019126      -4.88680471      -0.01606682      -0.00849799      -0.02653298
P        5.16829807       3.46981838       2.12018564      -4.88680544      -0.01606591       0.00849955      -0.02653393
P        2.29530307       2.30529477       3.70290145      -4.88680328      -0.01606059      -0.00850590       0.02653374
P        5.16829586       0.58226057       3.70289566      -4.88680338      -0.01606114       0.00850602       0.02653447
S        3.45110968       0.59500682       0.84474622      -5.40313955       0.01193617       0.02210090       0.00261091
S        0.57811689       2.29254848       0.84475181      -5.40313902       0.01193565      -0.02210283       0.00261174
S        0.57811971       5.18010556       4.97834957      -5.40313871       0.01193234      -0.02210666      -0.00261281
S        3.45111265       3.48256196       4.97834359      -5.40313867       0.01193179       0.02210559      -0.00261152
