11
Lattice="7.861436242616873 1.058374229079965e-05 5.5364003732552266e-05 -2.302891979078712e-05 6.881375424629761 -3.9729617324333524 -1.4224976503057619e-05 2.9455028133881875e-06 7.94592679884735" Properties=species:S:1:pos:R:3:energies:R:1:forces:R:3 material_id=wbm-2-45218 energy=-54.252647342169965 free_energy=-54.252647342169965 stress="-0.0008404499772300978 -2.5435939926800555e-08 3.4222008795053906e-08 -2.5435939926800555e-08 4.969020991976606e-05 6.872578267174803e-08 3.4222008795053906e-08 6.872578267174803e-08 4.9610631903714787e-05" pbc="T T T"
Hf       3.97615538       4.92103238       3.97299029      -8.39983752       0.01319397       0.00829316       0.00000004
Hf       3.97617669       0.98018360       1.69774059      -8.39983753       0.01319402      -0.00414642      -0.00718242
Hf       3.97616853       0.98018581       6.24823731      -8.39983862       0.01319430      -0.00414667       0.00718235
Se       5.72180681       0.00001723       7.94595575      -6.71695648      -0.03071722      -0.00000027       0.00000015
I        2.12708807       2.30873299       0.00002186      -3.22006207       0.00098207      -0.00460436       0.00000061
I        5.54737811       3.44631016       1.97679877      -3.13307149      -0.00424761       0.00122033      -0.00211366
I        2.12706957       5.72700997       1.97356470      -3.22006166       0.00098202       0.00230155       0.00398770
I        5.54736475       6.87017159       0.00003061      -3.13307253      -0.00424547      -0.00243587      -0.00000053
I        2.33133224       2.29379390       3.97298560      -3.27677451       0.00092541      -0.00000072       0.00000133
I        2.12707396       5.72700935      -1.97352089      -3.22006241       0.00098394       0.00230060      -0.00398457
I        5.54738327       3.44631029      -1.97673630      -3.13307253      -0.00424542       0.00121867       0.00210900
