9
Lattice="3.149992580310977 -2.4810339986008018e-09 6.445133311492675e-10 -4.600214567594915e-09 6.62085622680301 -3.8225531295210797 1.652257606779063e-09 6.4168634892618895e-09 7.645106260836054" Properties=species:S:1:pos:R:3:energies:R:1:forces:R:3 material_id=wbm-3-75894 energy=-55.435771165345145 free_energy=-55.435771165345145 stress="0.0023851043303709405 -3.323586153360058e-09 8.443901946171143e-10 -3.323586153360058e-09 0.0009593054657280477 1.3682625860908925e-10 8.443901946171143e-10 1.3682625860908925e-10 0.0009592993986050284" pbc="T T T"
V       -0.00000001      -0.00000002       4.77875462      -7.37719454       0.00000004       0.00000008       0.02256254
V        0.00000000       4.13852288      -2.38937729      -7.37719457       0.00000002       0.01953986      -0.01128129
V       -0.00000000       2.48233338       1.43317581      -7.37719514       0.00000003      -0.01954009      -0.01128172
Sn       1.57499628       1.96140582      -1.13241822      -4.17415594       0.00000010      -0.01595338       0.00921078
Sn       1.57499629      -0.00000001       2.26483632      -4.17415525      -0.00000003       0.00000014      -0.01842050
Sn       1.57499629       4.65945043       2.69013501      -4.17415455      -0.00000006       0.01595294       0.00921017
Pd       1.57499629       2.20695205       3.82255311      -6.98907174      -0.00000001      -0.00000006       0.00000004
Pd      -0.00000000       0.00000003       0.00000001      -6.80357772      -0.00000005       0.00000037      -0.00000006
Pd       1.57499629       4.41390414       0.00000003      -6.98907172      -0.00000004       0.00000013       0.00000004
