10
Lattice="5.895408251926888 0.017897988425183222 -0.10304310665209747 -2.9000844086739552 4.04638206262035 2.914061799281386 -0.00637374139108807 -0.06185577645579006 5.762171561133331" Properties=species:S:1:pos:R:3:energies:R:1:forces:R:3 material_id=wbm-3-54368 energy=-83.55794915768658 free_energy=-83.55794915768658 stress="-0.002288938044747995 -0.001009353887047451 0.002204695121650743 -0.001009353887047451 0.0017686097912281182 0.001869449546283288 0.002204695121650743 0.001869449546283288 0.0015954899022874618" pbc="T T T"
Na       2.94451724      -0.02197888       2.82956424      -1.31477056       0.00000021      -0.00000000      -0.00000002
Eu       3.07286168       2.10825323       5.75943002     -11.33258853       0.00787019       0.00880198       0.00418051
Eu      -0.08391155       1.89417106       2.81376031     -11.33258866      -0.00787025      -0.00880253      -0.00418182
W        0.00000007      -0.00000007      -0.00000006     -11.57486198      -0.00000272       0.00000253       0.00000187
O       -1.95514515       3.98441081       4.63272516      -8.15927870      -0.00723433       0.00459186      -0.00694391
O        1.63912959       0.46585666       4.84730683      -7.68669636      -0.02610048       0.00061576       0.02756812
O        1.34982045       3.53656762       3.72588341      -7.68669587       0.02610250      -0.00061469      -0.02756852
O        4.94409524       0.01801342       3.94046513      -8.15927891       0.00723443      -0.00459177       0.00694322
O       -0.43356440       1.81780147       6.13107092      -8.15559453       0.00226258      -0.01016256       0.00206497
O        3.42251451       2.18462288       2.44211929      -8.15559505      -0.00226213       0.01015941      -0.00206443
