6
Lattice="3.568277676074646 7.548805539477775e-10 -3.6751894636994494e-10 7.54880363604558e-10 3.568277675231108 2.7664372615580674e-10 -8.32029940864737e-10 6.597888744511104e-10 8.048927709744307" Properties=species:S:1:pos:R:3:energies:R:1:forces:R:3 material_id=wbm-1-55710 energy=-39.02230338259556 free_energy=-39.02230338259556 stress="-0.0011611450667204269 -1.3689161977729108e-09 -4.931467289928659e-10 -1.3689161977729108e-09 -0.0011611416319516246 1.4207356291691535e-09 -4.931467289928659e-10 1.4207356291691535e-09 0.0026778568425665696" pbc="T T T"
Sc       2.67620826       2.67620825       5.74716001      -5.94830658      -0.00000008       0.00000004       0.03288832
Sc       0.89206942       0.89206942       2.30176770      -5.94830660      -0.00000001       0.00000000      -0.03288826
Si       2.67620826       0.89206942      -0.00000000      -5.86484124       0.00000010      -0.00000004      -0.00000002
Si       0.89206943       2.67620825      -0.00000000      -5.86484124      -0.00000009       0.00000003       0.00000006
S        0.89206942       0.89206941       5.02876325      -7.69800351       0.00000007      -0.00000002      -0.00859987
S        2.67620826       2.67620825       3.02016447      -7.69800422       0.00000001      -0.00000001       0.00859976
