3
Lattice="2.9153811263200224 5.491127274211564e-09 -6.176541145923951e-09 -1.4576905693708617 2.524794092425986 8.10664603046601e-09 -1.2100472107703097e-08 1.2094018208059886e-08 6.342516532566606" Properties=species:S:1:pos:R:3:energies:R:1:forces:R:3 material_id=wbm-1-16651 energy=-9.272279652553086 free_energy=-9.272279652553086 stress="-0.002876247219598412 8.527326682165719e-10 2.720574751085416e-09 8.527326682165719e-10 -0.002876241744966119 -1.9446579200398044e-09 2.720574751085416e-09 -1.9446579200398044e-09 -0.0021551945760666263" pbc="T T T"
Au       1.45769056       0.84159804       1.99639980      -1.91915262       0.00000005       0.00000007       0.01074121
Au      -0.00000001       1.68319607       4.34611670      -1.91915287       0.00000006      -0.00000000      -0.01074135
F       -0.00000001      -0.00000001       0.00000004      -5.43397416      -0.00000010      -0.00000007       0.00000014
