6
Lattice="3.4505615687632774 5.15631317121442e-10 2.334433423082089e-09 5.156329667138961e-10 3.4505615675331422 1.3325970043144117e-09 6.764932058923957e-09 3.8086587164315615e-09 10.321237265755334" Properties=species:S:1:pos:R:3:energies:R:1:forces:R:3 material_id=wbm-4-37363 energy=-45.03883217743279 free_energy=-45.03883217743279 stress="0.0018998273594276428 2.626690454154983e-10 -3.935754314418195e-09 2.626690454154983e-10 0.0018998296130078134 1.3205736448538423e-09 -3.935754314418195e-09 1.3205736448538423e-09 -0.0022320793886164768" pbc="T T T"
Tb      -0.00000000      -0.00000001       0.00000003      -3.52545492      -0.00000004       0.00000004       0.00000015
Tb       0.00000001       0.00000000       6.95445307      -3.55988294      -0.00000022       0.00000001       0.01874878
Tb       0.00000000       0.00000000       3.36678420      -3.55988288      -0.00000001      -0.00000012      -0.01874944
Os       1.72528079       1.72528079       8.63568023     -12.52035412       0.00000017      -0.00000004      -0.01448562
Os       1.72528079       1.72528078       1.68555703     -12.52035403       0.00000006       0.00000005       0.01448609
Pt       1.72528078       1.72528078       5.16061861      -9.35290328       0.00000003       0.00000006       0.00000004
