8
Lattice="4.645572828297114 3.668313864045092e-09 2.4328345241210043e-09 3.6683138622448097e-09 4.645572827391632 8.329721162138322e-10 4.545956221548609e-09 1.5994590785076636e-09 9.506011262888503" Properties=species:S:1:pos:R:3:energies:R:1:forces:R:3 material_id=wbm-3-60142 energy=-29.5074558640171 free_energy=-29.5074558640171 stress="0.0009880411336252821 9.724503695210373e-10 1.616834281191035e-10 9.724503695210373e-10 0.0009880403562128916 3.017208500713926e-10 1.616834281191035e-10 3.017208500713926e-10 -0.0005084932887163519" pbc="T T T"
Ce      -0.00000000      -0.00000000      -0.00000007      -5.89732766      -0.00000003      -0.00000005      -0.00000006
In       2.32278642      -0.00000000       6.33393188      -2.57819595       0.00000001       0.00000001      -0.00960096
In       0.00000001       2.32278642       6.33393185      -2.57819594      -0.00000002       0.00000001      -0.00960109
In       2.32278642       2.32278642       1.35396086      -3.04045675       0.00000003       0.00000001      -0.00141786
In       2.32278641       2.32278640       8.15205047      -3.04045707       0.00000005       0.00000001       0.00141773
In       0.00000000       2.32278643       3.17207940      -2.57819587      -0.00000002       0.00000000       0.00960100
In       2.32278643      -0.00000000       3.17207941      -2.57819588       0.00000001       0.00000003       0.00960097
Pd       0.00000001       0.00000001       4.75300562      -7.21643074      -0.00000003      -0.00000003       0.00000026
