6
Lattice="3.8287903023669423 3.733104564019883e-10 5.892862665054838e-10 1.5326542535651014e-11 4.809414526352065 -2.7767167750257142 9.593601212907533e-10 1.3948158404801682e-09 5.553433560959811" Properties=species:S:1:pos:R:3:energies:R:1:forces:R:3 material_id=wbm-2-45767 energy=-38.82460348167561 free_energy=-38.82460348167561 stress="-0.0023160233247601415 5.857892741761953e-10 1.9629225139144584e-09 5.857892741761953e-10 0.0012420623239077114 -2.9096587758994974e-09 1.9629225139144584e-09 -2.9096587758994974e-09 0.0012420653295802896" pbc="T T T"
Lu      -0.00000001       0.00000001      -0.00000000      -4.09708211       0.00000009       0.00000004       0.00000004
Si      -0.00000000       1.60313818       2.77671678      -5.07048573       0.00000006      -0.00000007       0.00000007
Si      -0.00000000       3.20627636       0.00000000      -5.07048570      -0.00000000      -0.00000004       0.00000009
Pt       1.91439516      -0.00000001       2.77671678      -8.19551627       0.00000001       0.00000024      -0.00000012
Pt       1.91439514       2.40470725      -1.38835839      -8.19551736      -0.00000000      -0.00000002      -0.00000008
Pt       1.91439517       2.40470727       1.38835839      -8.19551631      -0.00000016      -0.00000016      -0.00000000
