12
Lattice="4.72434175550757 -7.100705968856499e-07 6.749708424716764e-06 1.0809476082740567e-06 6.972492388089096 0.0001649299443297558 -9.70528498928244e-06 -0.00018038341360182642 8.183432737392117" Properties=species:S:1:pos:R:3:energies:R:1:forces:R:3 material_id=wbm-3-60173 energy=-59.07944687440653 free_energy=-59.07944687440653 stress="-0.002038459519206908 2.0887341024100066e-09 1.0097008027349013e-08 2.0887341024100066e-09 0.001592834422244812 4.0119466229194243e-07 1.0097008027349013e-08 4.0119466229194243e-07 -0.0020237903001417055" pbc="T T T"
Tb       3.54325695       3.48660639       2.04429732      -4.16483229       0.00000166       0.00036643      -0.00205125
Tb       1.18108619       6.97193925       6.13605624      -4.16482850      -0.00000156      -0.00021586      -0.00193869
Tb       3.54325639       0.00037007       2.04755349      -4.16482862       0.00000172       0.00021519       0.00193931
Tb       1.18108564       3.48570296       6.13931266      -4.16483248      -0.00000160      -0.00036691       0.00205082
In       1.18108378       1.74524031       3.40990742      -3.03695963       0.00000081       0.00154398      -0.00016109
In       1.18108892       5.23154704       0.68196506      -3.03700288      -0.00000467       0.00154350       0.00036218
In       3.54325367       1.74076160       7.50164510      -3.03700282       0.00000428      -0.00154504      -0.00036492
In       3.54325881       5.22706836       4.77370235      -3.03695955      -0.00000082      -0.00154569       0.00016160
Pd       1.18109102       1.74162129       0.68219390      -7.56803355      -0.00000314      -0.00117344      -0.00009182
Pd       3.54325153       5.23069110       7.50141586      -7.56803406       0.00000336       0.00117555       0.00009265
Pd       3.54325268       1.74449898       4.77387475      -7.56806614       0.00000229       0.00118279       0.00018023
Pd       1.18108993       5.22781345       3.40973507      -7.56806636      -0.00000234      -0.00118050      -0.00017902
