6
Lattice="3.3716820738400672 -2.4734854975418676e-12 2.334126384476078e-10 -1.827966301077028e-11 6.3348547970870195 -0.13413790698905925 4.00921442967848e-10 -0.03766615058076632 5.859999123741677" Properties=species:S:1:pos:R:3:energies:R:1:forces:R:3 material_id=wbm-4-33053 energy=-30.101602241251666 free_energy=-30.101602241251666 stress="0.00020310161438923786 -2.961995523553512e-09 2.2939572773051156e-09 -2.961995523553512e-09 0.002063554479889923 -0.0008048436242361847 2.2939572773051156e-09 -0.0008048436242361847 2.9363775817758926e-05" pbc="T T T"
Cr       1.68584103      -0.01883308       2.92999956      -7.83160997       0.00000014      -0.00000003       0.00000000
S       -0.00000000       4.98816495       3.79509890      -5.12260492      -0.00000008       0.00338119      -0.03527334
S        1.68584101       1.33562714       4.77372874      -4.42121354      -0.00000022      -0.01113167       0.02320990
S        1.68584100       4.96156149       0.95213248      -4.42121360      -0.00000050       0.01113203      -0.02321003
S       -0.00000001       1.30902370       1.93076233      -5.12260490      -0.00000007      -0.00338121       0.03527328
S        0.00000010       0.00000001      -0.00000000      -3.18235531       0.00000072      -0.00000030       0.00000019
