6
Lattice="3.3678946107798406 -1.596025462428118e-10 -7.512595789568435e-11 -1.5960304755013087e-10 3.367894610591531 -2.086703921701429e-10 -2.3093182271324527e-10 -6.443675070758106e-10 10.407598949891247" Properties=species:S:1:pos:R:3:energies:R:1:forces:R:3 material_id=wbm-3-48152 energy=-28.75525572592077 free_energy=-28.75525572592077 stress="0.001093004953554725 -1.4071940300699296e-10 -5.813754319727058e-10 -1.4071940300699296e-10 0.0010930049695465776 -9.490127168951268e-10 -5.813754319727058e-10 -9.490127168951268e-10 0.0004604196750811423" pbc="T T T"
Tm       0.00000000      -0.00000000       0.00000001      -3.57451356      -0.00000007       0.00000006      -0.00000011
Tm      -0.00000000       0.00000000       7.12022115      -3.54851571      -0.00000010       0.00000001      -0.02245334
Tm      -0.00000000       0.00000000       3.28737781      -3.54851571      -0.00000006       0.00000010       0.02245330
Zn       1.68394730       1.68394731       5.20379946      -2.40110554       0.00000002      -0.00000004      -0.00000011
Ni       1.68394731       1.68394730       8.69123360      -7.84130292       0.00000009       0.00000000       0.01373103
Ni       1.68394731       1.68394730       1.71636534      -7.84130228       0.00000012      -0.00000014      -0.01373078
