11
Lattice="4.451292703957454 0.061663512260892825 1.9424056418841167 1.9753298042538314 4.6955074045942515 1.6504870472383328 0.2292908332162436 -0.2767271186724022 5.441299939679394" Properties=species:S:1:pos:R:3:energies:R:1:forces:R:3 material_id=wbm-3-8387 energy=-82.93485723494034 free_energy=-82.93485723494034 stress="0.001940539283223481 -1.8281684706978866e-05 0.002276047427632565 -1.8281684706978866e-05 0.0016607929729630933 -0.002923654219303289 0.002276047427632565 -0.002923654219303289 -0.00180033697768968" pbc="T T T"
Ta       3.07972459       3.48761651       5.41207160     -11.12356275      -0.00280485       0.00260610       0.00499390
Ta       3.57618874       0.99282727       3.62212104     -11.12356400       0.00280512      -0.00260622      -0.00499403
Ni       1.55463653       1.00498808       5.61436478      -6.70476908       0.00468768      -0.00503405      -0.01630033
Ni       5.10127686       3.47545573       3.41982785      -6.70476763      -0.00468809       0.00503432       0.01629988
Ni       1.10231033       2.20939018       3.54589346      -6.83767299      -0.00000064      -0.00000026       0.00000069
Ni       3.84542048       0.68951007       6.27272612      -6.75895796       0.00533605       0.01406095      -0.00500435
Ni       2.81049286       3.79093369       2.76146645      -6.75895782      -0.00533519      -0.01405967       0.00500561
B        1.69648838       0.55369711       2.21445578      -6.81366698       0.00821098      -0.01164614      -0.02030790
B        4.95942491       3.92674671       6.81973688      -6.81366766      -0.00821112       0.01164524       0.02030761
B        4.38404721       2.33813279       7.20978109      -6.64763532       0.00185392      -0.00812363       0.00779024
B        2.27186613       2.14231100       1.82441158      -6.64763502      -0.00185387       0.00812336      -0.00779130
