9
Lattice="4.15740937582898 -5.721964333840457e-10 1.664441153704835e-10 -9.46087122492037e-10 5.999441248145059 -3.463779019230398 2.7281146497253923e-10 5.356443338862543e-09 6.927558041535346" Properties=species:S:1:pos:R:3:energies:R:1:forces:R:3 material_id=wbm-4-1047 energy=-52.26074460536836 free_energy=-52.26074460536836 stress="0.0002492708793939757 -1.0950167612482168e-09 -5.937929404495287e-10 -1.0950167612482168e-09 -0.002212560012950569 -2.1346926634002873e-09 -5.937929404495287e-10 -2.1346926634002873e-09 -0.0022125564951520037" pbc="T T T"
Ho       0.00000000       0.00000000       4.02949391      -4.42696315       0.00000000       0.00000002       0.01193331
Ho       0.00000000       3.48964409      -2.01474696      -4.42696315       0.00000003       0.01033449      -0.00596646
Ho       0.00000000       2.50979717       1.44903207      -4.42696360      -0.00000004      -0.01033430      -0.00596659
Al       2.07870468       4.60011834       2.65587957      -3.87266277       0.00000005       0.00203250       0.00117329
Al       2.07870469       1.39932291      -0.80789947      -3.87266277       0.00000011      -0.00203247       0.00117346
Al       2.07870468       0.00000001       1.61579892      -3.87266276       0.00000013      -0.00000007      -0.00234710
Si       2.07870469       1.99981375       3.46377903      -7.33575137      -0.00000002       0.00000003      -0.00000002
Si       2.07870468       3.99962751      -0.00000000      -7.33575079       0.00000004      -0.00000001      -0.00000000
Ir       0.00000000       0.00000000       0.00000000     -12.69036424      -0.00000030      -0.00000018       0.00000010
