5
Lattice="4.045966705951094 2.93654142570719e-08 1.6635363013647395 1.3196125103442082 4.639771558384695 2.54247037908369 0.1270314163820322 0.3009625648120212 5.44300426176398" Properties=species:S:1:pos:R:3:energies:R:1:forces:R:3 material_id=wbm-3-77676 energy=-34.44690764448883 free_energy=-34.44690764448883 stress="-0.0004683413608196631 -0.00015761520091685488 -0.0001632146178784333 -0.00015761520091685488 -0.00034518415600721903 0.0003833567354821929 -0.0001632146178784333 0.0003833567354821929 -0.00013847591786904958" pbc="T T T"
Er       4.25231322       3.45302257       6.91363454      -3.80765003      -0.00708422       0.01346377       0.01722987
Er       1.24029740       1.48771158       2.73537639      -3.80765004       0.00708437      -0.01346373      -0.01722981
Zn       0.00000001      -0.00000001       0.00000001      -1.57357234       0.00000011       0.00000025      -0.00000014
Os       2.47139860       1.47021071       5.49311931     -12.62901706       0.00908563       0.03305520      -0.02209754
Os       3.02121204       3.47052347       4.15589163     -12.62901818      -0.00908589      -0.03305550       0.02209762
