6
Lattice="4.192995989252022 1.5333792116851633e-10 3.5141639324135046e-10 1.533376437493157e-10 4.1929959994563735 2.6433135653563655e-10 5.449214519041662e-10 4.1671798487083704e-10 6.556049729102978" Properties=species:S:1:pos:R:3:energies:R:1:forces:R:3 material_id=wbm-2-48009 energy=-40.877629795398256 free_energy=-40.877629795398256 stress="0.0024341144045639464 -3.0182474920437024e-10 -3.797790834436436e-10 -3.0182474920437024e-10 0.0024341155501779723 1.4339398059633552e-10 -3.797790834436436e-10 1.4339398059633552e-10 -0.002579701752739459" pbc="T T T"
Tb       3.14474699       3.14474700       2.13601367      -4.23582334       0.00000001       0.00000007       0.03367769
Tb       1.04824900       1.04824900       4.42003605      -4.23582271       0.00000003      -0.00000004      -0.03367731
Si       3.14474699       3.14474700       5.21070639      -7.00532675       0.00000001       0.00000003      -0.03077804
Si       1.04824900       1.04824900       1.34534334      -7.00532613       0.00000005      -0.00000009       0.03077802
Rh       3.14474699       1.04824900       0.00000000      -9.19766494      -0.00000010      -0.00000003      -0.00000018
Rh       1.04824900       3.14474700       0.00000000      -9.19766592       0.00000000       0.00000007      -0.00000018
