7
Lattice="3.5759693472529452 1.0279385770717361e-09 1.0585957728544764e-09 1.0279399316873008e-09 3.5759693401950003 2.7821559502993853e-10 2.279024928547304e-09 5.987672359342373e-10 7.701004749551247" Properties=species:S:1:pos:R:3:energies:R:1:forces:R:3 material_id=wbm-3-25526 energy=-51.247188205097245 free_energy=-51.247188205097245 stress="-0.0035239508148075835 -6.0865911720215916e-09 1.275100446780787e-09 -6.0865911720215916e-09 -0.0035239530864364654 -9.289594062916521e-10 1.275100446780787e-09 -9.289594062916521e-10 0.0004321243347481224" pbc="T T T"
Fe       0.00000000       1.78798467       1.80479250      -7.96800425      -0.00000018      -0.00000011       0.00859817
Fe       0.00000001       1.78798467       5.89621224      -7.96800423       0.00000001       0.00000001      -0.00859796
Fe       1.78798468       0.00000001       1.80479255      -7.96800435       0.00000021       0.00000022       0.00859788
Fe       1.78798468       0.00000000       5.89621221      -7.96800429       0.00000000       0.00000009      -0.00859793
Fe      -0.00000001       0.00000000       0.00000000      -7.78509496      -0.00000018      -0.00000003      -0.00000016
Ni       1.78798467       1.78798467      -0.00000001      -7.05543714       0.00000013      -0.00000009      -0.00000003
Sb       0.00000000       0.00000000       3.85050238      -4.53463898      -0.00000000      -0.00000009       0.00000004
