8
Lattice="4.555979108921793 9.206903909212627e-10 -8.511147823320145e-10 9.206951028325363e-10 4.555979105881724 -9.862086042439316e-10 -8.511132914032476e-10 -9.862088691578917e-10 4.555979106992457" Properties=species:S:1:pos:R:3:energies:R:1:forces:R:3 material_id=wbm-1-31414 energy=-54.938121191132566 free_energy=-54.938121191132566 stress="-0.0005890117216581314 -4.731469973870959e-09 -3.1398710014357785e-09 -4.731469973870959e-09 -0.0005890157236802018 1.154838430740727e-09 -3.1398710014357785e-09 1.154838430740727e-09 -0.0005890197445899159" pbc="T T T"
Al       2.27798956       2.27798954       0.00000000      -3.91260768      -0.00000031       0.00000017      -0.00000024
Al       2.27798957       0.00000000       2.27798955      -3.91260777      -0.00000069       0.00000008       0.00000026
Al      -0.00000002       2.27798955       2.27798955      -3.91260778       0.00000052      -0.00000023       0.00000053
In      -0.00000001       0.00000001       0.00000000      -1.59344207       0.00000062      -0.00000009      -0.00000039
N        3.32728505       3.32728505       1.22869406     -10.40171461      -0.01592836      -0.01592846       0.01592848
N        3.32728504       1.22869406       3.32728505     -10.40171458      -0.01592825       0.01592836      -0.01592891
N        1.22869407       3.32728503       3.32728505     -10.40171200       0.01592814      -0.01592794      -0.01592864
N        1.22869406       1.22869406       1.22869405     -10.40171468       0.01592833       0.01592812       0.01592892
