11
Lattice="3.9723533280221988 -0.00011237482195288688 -0.587872628984131 -0.08692724360363704 3.9714021165252653 -0.587872522070939 0.23569828915469618 0.24090715745472632 15.294028890440625" Properties=species:S:1:pos:R:3:energies:R:1:forces:R:3 material_id=wbm-3-52265 energy=-64.00806111621834 free_energy=-64.00806111621834 stress="-0.0015995069103413348 -3.2463444930678025e-07 1.2138203207427811e-05 -3.2463444930678025e-07 -0.0015995224398213006 1.2412013549336241e-05 1.2138203207427811e-05 1.2412013549336241e-05 -0.0015269180660393675" pbc="T T T"
Pr       0.00000029       0.00003414      -0.00000587      -5.53949352       0.00000045       0.00000079       0.00000159
Ni       1.04571748       3.09900569       7.05913482      -5.14561807       0.00000088      -0.00000030      -0.00000011
Ni       3.07539245       1.11321832       7.05913421      -5.14561811      -0.00000099      -0.00000051       0.00000009
Bi       1.81472852       1.85486637      12.24908131      -1.57848959      -0.00579354      -0.00592193      -0.03976769
Bi       2.30639664       2.35739932       1.86919109      -1.57848837       0.00579328       0.00592183       0.03976438
Te       3.26181066       3.33391596       8.31882542      -4.06730101      -0.00258827      -0.00264640      -0.01757467
Te       0.85929907       0.87830764       5.79944295      -4.06730302       0.00258797       0.00264579       0.01757560
O        2.20217038       0.22077083       1.16534084      -9.22143828      -0.00497038      -0.00512824      -0.03336211
O        3.94856860       2.00576283      12.95293092      -9.22143704       0.00501814       0.00508166       0.03336251
O        0.17255640       2.20650231       1.16534089      -9.22143706      -0.00501807      -0.00508090      -0.03336243
O        1.91895458       3.99149449      12.95293097      -9.22143705       0.00497054       0.00512822       0.03336285
