10
Lattice="4.740246046090098 -3.519750765320666e-10 2.008479845684854e-09 -9.306704145400647e-10 6.839882739352849 4.4085113333037396e-09 2.3726123534318996e-09 4.40850416494253e-09 6.839882714457329" Properties=species:S:1:pos:R:3:energies:R:1:forces:R:3 material_id=wbm-2-27765 energy=-56.792139680403196 free_energy=-56.792139680403196 stress="0.0006682576299461396 -1.1471655440438857e-09 1.0131422247112664e-09 -1.1471655440438857e-09 0.0021431539355547453 -1.0103356340137754e-09 1.0131422247112664e-09 -1.0103356340137754e-09 0.0021431545487606263" pbc="T T T"
Ce       2.37012301       2.25631466       1.16362671      -5.40016968       0.00000012       0.00901294      -0.00901285
Ce       2.37012303       5.67625603       2.25631463      -5.40016967      -0.00000004       0.00901289       0.00901285
Ce       2.37012302       4.58356808       5.67625602      -5.40016933      -0.00000001      -0.00901283       0.00901285
Ce       2.37012303       1.16362670       4.58356809      -5.40016935      -0.00000005      -0.00901287      -0.00901279
Mn       0.00000000       3.41994137       3.41994136      -8.81593417      -0.00000000      -0.00000016      -0.00000000
Mn       0.00000000       0.00000000      -0.00000000      -8.81593367      -0.00000002       0.00000006       0.00000003
Ga      -0.00000001       5.91387122       4.34595284      -4.38989752       0.00000005       0.01200354      -0.01200325
Ga      -0.00000000       4.34595289       0.92601152      -4.38989876      -0.00000000      -0.01200364      -0.01200364
Ga      -0.00000000       2.49392987       5.91387120      -4.38989877      -0.00000007       0.01200342       0.01200339
Ga      -0.00000000       0.92601152       2.49392987      -4.38989877       0.00000002      -0.01200334       0.01200341
