10
Lattice="4.443985080446024 -5.359523296293223e-09 -5.01667847330417e-10 -1.3051131901302518e-08 7.596982626996717 8.65190425348662e-09 -1.0716577250497046e-09 8.65189859109105e-09 7.596982659316385" Properties=species:S:1:pos:R:3:energies:R:1:forces:R:3 material_id=wbm-2-49138 energy=-46.78341087216662 free_energy=-46.78341087216662 stress="0.0015929418035682773 5.170451806703572e-10 1.7619623459489998e-10 5.170451806703572e-10 0.0018403857227447386 1.441178110273489e-09 1.7619623459489998e-10 1.441178110273489e-09 0.0018403818869174734" pbc="T T T"
Sr       2.22199252       6.31099508       5.08447886      -1.70190894       0.00000008      -0.02589586       0.02589609
Sr       2.22199255       2.51250378       6.31099516      -1.70190895      -0.00000004      -0.02589612      -0.02589609
Sr       2.22199253       1.28598751       2.51250377      -1.70190867      -0.00000003       0.02589605      -0.02589618
Sr       2.22199253       5.08447882       1.28598753      -1.70190897      -0.00000000       0.02589623       0.02589613
Sn      -0.00000001       3.79849127       3.79849137      -4.34456084      -0.00000001       0.00000013      -0.00000018
Sn      -0.00000000       0.00000001      -0.00000005      -4.34456036       0.00000004      -0.00000022       0.00000025
Pt      -0.00000000       1.00930323       4.80779442      -7.82166424       0.00000000      -0.01177376      -0.01177375
Pt      -0.00000000       4.80779450       6.58767952      -7.82166325      -0.00000007      -0.01177379       0.01177381
Pt      -0.00000000       2.78918819       1.00930318      -7.82166328       0.00000001       0.01177379      -0.01177379
Pt      -0.00000001       6.58767945       2.78918825      -7.82166338       0.00000001       0.01177355       0.01177371
