6
Lattice="4.358202684969272 -2.4580163617746577e-10 -3.2353739097174934e-09 2.425654450937387e-09 4.8449228516766025 -2.797217523069685 -5.452695579168072e-09 -6.357099241568917e-09 5.594435021543774" Properties=species:S:1:pos:R:3:energies:R:1:forces:R:3 material_id=wbm-4-16842 energy=-38.57463785343094 free_energy=-38.57463785343094 stress="-0.0015563887945026897 -1.4081830479050792e-09 -3.081583907492443e-09 -1.4081830479050792e-09 -0.0019346313060192083 -4.213433515417593e-09 -3.081583907492443e-09 -4.213433515417593e-09 -0.0019346264916112969" pbc="T T T"
Sm      -0.00000001      -0.00000000       0.00000001      -4.55030357      -0.00000001       0.00000005      -0.00000025
In      -0.00000000       3.22994856      -0.00000000      -1.77651559       0.00000005       0.00000013       0.00000006
In       0.00000001       1.61497428       2.79721751      -1.77651565      -0.00000007       0.00000002      -0.00000004
Ir       2.17910134       2.42246143       1.39860874     -10.15710063       0.00000004       0.00000002       0.00000026
Ir       2.17910134       2.42246143      -1.39860876     -10.15710060       0.00000015      -0.00000015      -0.00000022
Ir       2.17910135       0.00000000       2.79721749     -10.15710181      -0.00000017      -0.00000008       0.00000020
