3
Lattice="3.2859394710628216 -7.220493747293114e-09 6.608278284342418e-09 -2.7914497544003778e-09 3.511068139997376 2.0271161667666044 5.636637048966023e-09 5.35562669426027e-09 4.0542323131851274" Properties=species:S:1:pos:R:3:energies:R:1:forces:R:3 material_id=wbm-4-29752 energy=-27.437539281193704 free_energy=-27.437539281193704 stress="0.0029717858270565563 -2.6065574049916687e-09 2.64589274537715e-09 -2.6065574049916687e-09 -0.0009669378372428462 5.453772439133191e-09 2.64589274537715e-09 5.453772439133191e-09 -0.0009669672960659285" pbc="T T T"
Ta       0.00000000       0.00000002      -0.00000001     -10.05139264      -0.00000002       0.00000022       0.00000027
P        1.64296974       2.34071207       4.05423232      -6.71309951       0.00000005       0.00000024      -0.00000020
Ir       1.64296973       1.17035605       2.02711617     -10.67304713      -0.00000003      -0.00000047      -0.00000007
