4
Lattice="4.10917644120925 -1.0862684092716925e-06 2.372432335501754 1.3697244572452492 3.8741657895220114 2.3724323337942126 2.423648187586859e-09 -3.775237151291519e-10 4.744864666805619" Properties=species:S:1:pos:R:3:energies:R:1:forces:R:3 material_id=wbm-1-18667 energy=-11.000653268459887 free_energy=-11.000653268459887 stress="-0.00017454121131625034 9.31524708108695e-09 -7.800674254358551e-10 9.31524708108695e-09 -0.0001745333170770019 1.308373635073616e-09 -7.800674254358551e-10 1.308373635073616e-09 -0.00017452197963189673" pbc="T T T"
Cd       1.36973047       0.96853931       2.37243233      -0.48568109       0.00000139      -0.00000023      -0.00000009
Ga       4.10918115       2.90562158       7.11729700      -3.16909266      -0.00000005       0.00000006      -0.00000006
Au       0.00000365      -0.00000129      -0.00000000      -3.67293952       0.00000072      -0.00000047       0.00000014
Au       2.73945800       1.93707970       4.74486467      -3.67294001      -0.00000206       0.00000065       0.00000001
