4
Lattice="4.1362668235563484 3.5891121459154207e-07 2.38820696583797 1.3785840302297743 3.899742588126513 2.388373113641801 2.3449081332479727e-05 -5.34899770466586e-05 4.775978496159105" Properties=species:S:1:pos:R:3:energies:R:1:forces:R:3 material_id=wbm-3-15536 energy=-28.461235857751525 free_energy=-28.461235857751525 stress="-0.002579288314310122 -1.2345561010745411e-06 -4.097249110998191e-06 -1.2345561010745411e-06 -0.0025781655876144565 2.091233534666658e-06 -4.097249110998191e-06 2.091233534666658e-06 -0.0025746289463485735" pbc="T T T"
Tb       1.37871858       0.97492236       2.38813965      -3.41600356       0.00000002       0.00000003      -0.00000012
Eu       4.13615573       2.92476709       7.16441893      -9.15044143      -0.00000004       0.00000002      -0.00000000
Co       5.51479370       3.89968551       4.77667480      -7.94739480       0.00013984       0.00013387      -0.00023413
Co       2.75749431       1.94990216       4.77618456      -7.94739608      -0.00013982      -0.00013393       0.00023425
