7
Lattice="3.639444514381479 -3.722665948973252e-09 -2.2558276510236148e-10 -3.7226630676962216e-09 3.6394444837765842 3.0731007502636145e-09 -3.2032026459822765e-10 5.612198589559781e-09 7.806655784834025" Properties=species:S:1:pos:R:3:energies:R:1:forces:R:3 material_id=wbm-3-20255 energy=-25.630715815482866 free_energy=-25.630715815482866 stress="-0.002336094198052468 -4.687145065676172e-09 -8.815096120644731e-10 -4.687145065676172e-09 -0.0023361051845834416 1.8733102895177784e-09 -8.815096120644731e-10 1.8733102895177784e-09 -0.0011973793329601331" pbc="T T T"
Zn       1.81972225       1.81972225      -0.00000000      -0.86222014      -0.00000007      -0.00000020      -0.00000021
Cu       0.00000000       1.81972225       1.86757174      -4.04601754      -0.00000003       0.00000002       0.02080597
Cu      -0.00000000       1.81972225       5.93908403      -4.04601762       0.00000003      -0.00000013      -0.02080574
Cu       1.81972225      -0.00000000       1.86757175      -4.04601754       0.00000008       0.00000001       0.02080565
Cu       1.81972226       0.00000000       5.93908406      -4.04601749       0.00000003       0.00000012      -0.02080589
Cu       0.00000001      -0.00000000       0.00000001      -4.28956703       0.00000000       0.00000006      -0.00000007
Sb       0.00000000      -0.00000000       3.90332789      -4.29485846      -0.00000005       0.00000012       0.00000029
