9
Lattice="3.567944716483288 -1.7514232787325524e-12 1.8522932753271142e-10 -2.0118256209518816e-10 6.663484629892709 -3.8471646406998903 4.004826654968081e-10 3.8385076148646553e-10 7.6943292774358" Properties=species:S:1:pos:R:3:energies:R:1:forces:R:3 material_id=wbm-2-44635 energy=-38.273924866204005 free_energy=-38.273924866204005 stress="0.001900824432307874 -1.0586422819587653e-09 6.65254923288736e-10 -1.0586422819587653e-09 0.0011278449606057731 -6.023879385550206e-10 6.65254923288736e-10 -6.023879385550206e-10 0.0011278489733943845" pbc="T T T"
Sc       1.78397236       4.14316466      -2.39205723      -5.88265623      -0.00000001       0.00429784      -0.00248126
Sc       1.78397236       0.00000001       4.78411446      -5.88265629       0.00000002      -0.00000021       0.00496263
Sc       1.78397236       2.52031994       1.45510743      -5.88265623       0.00000001      -0.00429769      -0.00248144
Zn       1.78397236       0.00000001       0.00000000      -1.55257324       0.00000001       0.00000017      -0.00000003
Zn       0.00000001       4.44232308      -0.00000001      -2.00446044      -0.00000001       0.00000019       0.00000023
Zn      -0.00000000       2.22116155       3.84716465      -2.00446089       0.00000002      -0.00000002      -0.00000014
Sn       0.00000000       0.00000000       2.23765619      -5.02148718      -0.00000000       0.00000013      -0.03466822
Sn       0.00000000       4.72561750       2.72833654      -5.02148722      -0.00000004       0.03002364       0.01733393
Sn       0.00000000       1.93786713      -1.11882809      -5.02148715       0.00000000      -0.03002405       0.01733430
