12
Lattice="5.009095252422617 6.974310713460642e-05 1.688934205487817 2.2195721008305695 4.490493903891863 1.6889342163689054 0.005298621301658303 0.0032916040782051898 8.257762514022605" Properties=species:S:1:pos:R:3:energies:R:1:forces:R:3 material_id=wbm-3-55595 energy=-92.67115259472176 free_energy=-92.67115259472176 stress="0.0019525703569156694 8.281597372432747e-05 -0.00043359745662575465 8.281597372432747e-05 0.0018707108720343146 -0.0002693493822960001 -0.00043359745662575465 -0.0002693493822960001 0.0031112666072747983" pbc="T T T"
Gd       3.61698335       2.24692636       5.81781531     -14.41840631       0.00002072      -0.00003324      -0.00000013
Al       6.68184376       4.15090805       4.99914257      -3.05959585      -0.00471276      -0.00294972       0.01442705
Al       0.55208571       0.34300460       6.63648809      -3.05959585       0.00473253       0.00291699      -0.01442734
Sb       5.21940267       3.24223539       9.33868223      -1.24622984      -0.00076249      -0.00039314       0.00181826
Sb       2.01468917       1.25141599       2.29694843      -1.24623030       0.00069052       0.00051001      -0.00181734
O        3.06500487       4.13279675       4.45404214     -10.02130448       0.00805886      -0.00749746      -0.02147412
O        3.29129631       0.91626941       3.85689585     -10.02109455       0.01584169       0.01060777      -0.01515529
O        5.86786294       2.54464963       5.06623147     -10.02162730      -0.00365941       0.00948741      -0.02171722
O        2.35272649       0.36099092       6.56939926     -10.02162701      -0.00688350       0.00748482       0.02171683
O        4.95419349       1.94928792       7.77873484     -10.02109457      -0.01652908      -0.00950193       0.01515510
O        5.00888302       0.00041063       1.68893405      -9.51304312       0.00005296      -0.00008498      -0.00000025
O        2.17092854       3.57738248       7.18158841     -10.02130343       0.00314997      -0.01054653       0.02147446
