8
Lattice="4.538841600770922 6.005024427310618e-11 -2.236996528114669e-09 1.4967736429383758e-09 4.84699821004462 -2.7984154103055583 -2.8521935622609357e-09 -3.304171288405609e-07 5.596831282884915" Properties=species:S:1:pos:R:3:energies:R:1:forces:R:3 material_id=wbm-1-22489 energy=-53.46978437673881 free_energy=-53.46978437673881 stress="-0.0030977876932387406 -4.51771919871865e-09 -4.548365845591074e-09 -4.51771919871865e-09 0.0014664411316445984 -2.844103121909045e-09 -4.548365845591074e-09 -2.844103121909045e-09 0.0014664323937836244" pbc="T T T"
Ir       3.40413574       1.61566524       2.79841818      -7.82627280      -0.00000006      -0.00000062       0.00000066
Ir       1.13471494       3.23133144       0.00000255      -7.82627279       0.00000016       0.00000032       0.00000041
Pt       1.13471494       0.81261082       1.40748693      -6.30287316       0.00000011       0.00210345       0.00364329
Pt       1.13471494       3.22177424       2.79841825      -6.30287303       0.00000007      -0.00420650      -0.00000068
Pt       1.13471493       0.81261071       4.18934930      -6.30287317       0.00000010       0.00210268      -0.00364301
Pt       3.40413574       4.03438581       1.39093384      -6.30287332      -0.00000001      -0.00210271      -0.00364321
Pt       3.40413575       1.62522243       0.00000257      -6.30287313      -0.00000034       0.00420626      -0.00000078
Pt       3.40413574       4.03438597      -1.39092854      -6.30287298      -0.00000002      -0.00210288       0.00364332
