12
Lattice="4.46522915218052 -2.311284133552838e-05 -6.1055294565233e-06 2.2327041101898777 3.8669499765414383 -6.092528567882794e-06 2.899100476887271e-06 1.6981007836660869e-06 6.025735322006634" Properties=species:S:1:pos:R:3:energies:R:1:forces:R:3 material_id=wbm-4-16277 energy=-47.983895402662014 free_energy=-47.983895402662014 stress="0.0009625669038520214 3.1456497651137857e-06 -1.7530160983634318e-07 3.1456497651137857e-06 0.0009589104012841543 -1.100744539062302e-07 -1.7530160983634318e-07 -1.100744539062302e-07 0.005761410716465849" pbc="T T T"
Ho       0.00000142       0.00000085       3.01286766      -4.31148675      -0.00000015      -0.00000002       0.00000010
Mg       4.46529267       2.57795344       0.86198768      -0.47714392       0.00001221       0.00000749       0.01773342
Mg       2.23264347       1.28897512       5.16373544      -0.47714426      -0.00001216      -0.00000744      -0.01773344
Mn      -0.00000001       0.00000000       0.00000001      -9.55051766       0.00000009       0.00000009      -0.00000022
H        5.62401777       3.24692127       4.98461631      -4.16858879       0.01374312       0.00793483      -0.03056914
H        3.30661304       3.24693169       4.98462500      -4.16855235      -0.01374313       0.00794182      -0.03056817
H        4.46526653       1.24001838       4.98462487      -4.16855182       0.00000594      -0.01587304      -0.03056796
H        1.07391839       0.62000730       1.04110680      -4.16858927      -0.01374307      -0.00793486       0.03056901
H        3.39132311       0.61999688       1.04109812      -4.16855230       0.01374299      -0.00794165       0.03056816
H        2.23266963       2.62691018       1.04109825      -4.16855180      -0.00000594       0.01587278       0.03056807
H        4.46526512       2.57793750       2.77941960      -4.07810824       0.00000440       0.00000249       0.01458655
H        2.23267111       1.28899104       3.24630352      -4.07810824      -0.00000430      -0.00000248      -0.01458639
