5
Lattice="6.426911748526038 -6.288126922581936e-05 0.017602347870730246 0.0015325718335643852 6.433120430805833 0.001203268305130906 -0.0014361229844197137 -2.464904513568523e-05 6.434808584257004" Properties=species:S:1:pos:R:3:energies:R:1:forces:R:3 material_id=wbm-1-21778 energy=-23.639276584860404 free_energy=-23.639276584860404 stress="0.0007425171058512702 2.9815064690057973e-06 6.499886396961841e-05 2.9815064690057973e-06 0.0007522782359832358 -4.405806251342617e-07 6.499886396961841e-05 -4.405806251342617e-07 0.0007411816260089774" pbc="T T T"
Cs       0.00276907       6.41909058       6.40559916      -3.00289532      -0.00004823      -0.00817296      -0.01719010
Eu       3.10491188       3.19534565       3.16552195     -11.70987272       0.01811769       0.01241138       0.02809458
I        3.12295410       6.42249873       3.21528436      -2.97661991      -0.01333647       0.00364680      -0.01014076
I        6.32316594       3.27736502       3.31266212      -2.97421950       0.00933524      -0.00362232      -0.00943383
I        3.12820919       3.20136277       6.40554978      -2.97566914      -0.01406823      -0.00426289       0.00867010
