11
Lattice="3.8381716640470693 -0.007805089258911227 -0.7050768938971876 -0.14131832422986998 3.8355770996654424 -0.7050768883517682 0.209145245053002 0.2165518369538631 11.882608717799608" Properties=species:S:1:pos:R:3:energies:R:1:forces:R:3 material_id=wbm-2-29311 energy=-79.56434040957146 free_energy=-79.56434040957146 stress="8.0988903290299e-05 0.001034904477779832 -0.0007889746662588458 0.001034904477779832 0.00015304170008097643 -0.0008169149707558797 -0.0007889746662588458 -0.0008169149707558797 -0.0028452679455296427" pbc="T T T"
Yb       0.83615205       0.86576324       4.54285404      -3.06866044       0.00059659       0.00061784       0.00367020
Yb       3.06984655       3.17856074       5.92960088      -3.06866050      -0.00059644      -0.00061765      -0.00367010
Yb      -0.00000001      -0.00000000       0.00000000      -3.27004984      -0.00000005      -0.00000012       0.00000001
Zr       2.27764645       2.35830595       1.62585614     -11.64571460       0.00343720       0.00355963       0.01922969
Zr       1.62835215       1.68601787       8.84659880     -11.64571630      -0.00343750      -0.00355939      -0.01922940
N        2.20305115       0.29011586       1.18932201      -7.44877965      -0.00102248      -0.00106948      -0.00494748
N        0.21330301       2.21180996       1.18932200      -7.44878038      -0.00103261      -0.00105886      -0.00494786
N        1.70294743       3.75420799       9.28313295      -7.44877895       0.00102246       0.00106920       0.00494737
N        3.69269555       1.83251389       9.28313294      -7.44877896       0.00103291       0.00105909       0.00494759
N        2.65991672       2.75411372       3.70173826      -8.53521075      -0.00304121      -0.00314915      -0.01629110
N        1.24608188       1.29021002       6.77071667      -8.53521004       0.00304113       0.00314889       0.01629108
