5
Lattice="3.0124612956218706 2.1015093444702e-06 0.8805504120763057 0.9154658993603735 5.261813963034093 2.4613524815030527 -0.0837139570212344 0.07602042817490352 5.87963544226292" Properties=species:S:1:pos:R:3:energies:R:1:forces:R:3 material_id=wbm-2-33437 energy=-21.924228556758337 free_energy=-21.924228556758337 stress="0.0024865761052176166 0.00013559208284418418 0.0007481372600619198 0.00013559208284418418 0.00029990910266619044 -0.0004645088032843438 0.0007481372600619198 -0.0004645088032843438 0.0001462483183852368" pbc="T T T"
Rb       0.78970694       1.75387267       2.89157864      -0.95394055      -0.00238547       0.00583881       0.00816081
Rb       3.05450630       3.58396381       6.32995969      -0.95394054       0.00238542      -0.00583902      -0.00816071
Co       0.00000003       0.00000001       0.00000001      -3.99068932      -0.00000028       0.00000028      -0.00000025
O        2.21589869       4.19372636       3.60566702      -8.01282904      -0.00146797      -0.00759713       0.00500688
O        1.62831452       1.14411015       5.61587130      -8.01282911       0.00146829       0.00759706      -0.00500673
