4
Lattice="3.810542519125056 -1.583396594022609e-09 2.2000177494870368 1.2701808393981064 3.5926139374347934 2.2000177474387224 2.794244625180125e-09 -5.328344818968757e-10 4.400035494134304" Properties=species:S:1:pos:R:3:energies:R:1:forces:R:3 material_id=wbm-1-55773 energy=-35.34740816483388 free_energy=-35.34740816483388 stress="0.0016926659315473875 -4.163686001910679e-09 -4.086116951806092e-09 -4.163686001910679e-09 0.0016926716665792499 1.4352661307479277e-09 -4.086116951806092e-09 1.4352661307479277e-09 0.0016926682144030672" pbc="T T T"
Ti      -0.00000000       0.00000000       0.00000000      -7.34918869       0.00000004       0.00000011      -0.00000001
Ti       2.54036168       1.79630697       4.40003549      -7.34918807       0.00000006      -0.00000009       0.00000009
Si       1.27018084       0.89815349       2.20001775      -7.26857802      -0.00000004       0.00000001       0.00000003
W        3.81054252       2.69446045       6.60005325     -13.38045338      -0.00000005      -0.00000004      -0.00000011
