10
Lattice="6.442963426060324 0.13713197557923845 -3.510535300923279 -4.204200666376232 6.006626796042256 -0.3155787037659377 0.09598306704614547 -0.13713146939002932 7.336650510117348" Properties=species:S:1:pos:R:3:energies:R:1:forces:R:3 material_id=wbm-1-15569 energy=-43.92209212595502 free_energy=-43.92209212595502 stress="-0.0007760537846686007 -0.0007466166181756681 -0.0008931020713326688 -0.0007466166181756681 -0.0002319266914424401 0.0012759904193225798 -0.0008931020713326688 0.0012759904193225798 0.00022770402922522094" pbc="T T T"
Cs       0.09232553       4.53925525      -0.15779161      -3.06106525       0.00000003      -0.00000009       0.00000019
Cs      -2.05410883       2.93474763       3.51053599      -2.72540774       0.00000010      -0.00000027      -0.00000023
Cs       2.24242026       1.46737203       3.66832814      -3.06106527      -0.00000000       0.00000008      -0.00000010
Ca       0.00000004      -0.00000001       0.00000003      -4.53289269      -0.00000043       0.00000044      -0.00000066
F        1.57203994       4.31409170      -2.68666435      -5.05286871      -0.00415263      -0.01139621       0.00709709
F        4.59159069      -0.00000062       2.68666280      -5.05286881      -0.01212901       0.00000002      -0.00709700
F        1.94735581       0.00000115       1.13945232      -5.05286922       0.01212944      -0.00000005       0.00709734
F        0.66672283       1.82966710      -1.13944966      -5.05286873       0.00415264       0.01139594      -0.00709693
F       -3.16247151       4.51829384       5.40476667      -5.16509282       0.01698298      -0.02426146      -0.02902234
F        5.49721735       1.48833348      -1.89423020      -5.16509289      -0.01698311       0.02426160       0.02902264
