7
Lattice="2.623728137481001 3.092481864361649e-05 -0.0001381491972379311 -1.3121111201356417 5.190934561072572 -3.407652177550219 0.0003337115070977077 -0.1019298117330457 6.177252407454392" Properties=species:S:1:pos:R:3:energies:R:1:forces:R:3 material_id=wbm-3-69260 energy=-56.125506334306536 free_energy=-56.125506334306536 stress="-0.003937486316760289 -2.358324316222023e-07 5.117609727055396e-07 -2.358324316222023e-07 -0.0007565458586643886 -0.0010868190044520812 5.117609727055396e-07 -0.0010868190044520812 0.003515248053845733" pbc="T T T"
V        0.00000659       3.66298224       0.97283688      -8.75933566      -0.00000231       0.01906885      -0.00475601
V        1.31194416       1.42605346       1.79662520      -8.75933602       0.00000228      -0.01906915       0.00475604
Fe       1.31180595       2.09815312      -0.57176360      -8.87182167       0.00000096      -0.00487867      -0.00582515
Fe      -0.00000001      -0.00000001      -0.00000002      -8.86561091      -0.00000004      -0.00000003       0.00000067
Fe       0.00014475       2.99088260       3.34122568      -8.87182175      -0.00000092       0.00487745       0.00582545
Si       1.31174576       4.33884571      -1.23062978      -5.99879041      -0.00000122      -0.00310079      -0.00308277
Si       0.00020501       0.75018989       4.00009190      -5.99878991       0.00000124       0.00310235       0.00308177
