32
Lattice="6.014465061795654 -0.020083844679318716 2.8887669257455596e-08 -2.987731297108516 8.152015965907564 -4.093135747589195e-08 7.7886440179431e-08 -5.3754521840625874e-08 16.362904673128178" Properties=species:S:1:pos:R:3:energies:R:1:forces:R:3 material_id=wbm-1-31839 energy=-163.99202140571964 free_energy=-163.99202140571964 stress="-0.0019288764351160872 1.671046493723555e-05 1.2738086798935486e-09 1.671046493723555e-05 -0.0010499424879175016 -8.024150582290681e-09 1.2738086798935486e-09 -8.024150582290681e-09 -0.001607824988595189" pbc="T T T"
As       1.22610827       2.29366725       6.72201802      -3.20032608      -0.00533671       0.00401400      -0.00272901
As       0.28744661       1.77223053      14.90336042      -3.19931660      -0.00705714       0.00063347       0.00488509
As       1.80081355       5.83819668       9.64099643      -3.19931586      -0.00705864       0.00063063      -0.00488099
As       2.73947503       6.35963336       1.45943434      -3.20032688      -0.00532881       0.00401353       0.00273143
As       0.73750742       5.29042112       6.85648904      -2.99239643       0.00644450      -0.00032260      -0.00124523
As      -2.21186970       6.92758019      15.03786750      -2.99025842      -0.00667959      -0.00103105       0.00393060
As       2.28922864       2.84153037       9.50648931      -2.99026063      -0.00667881      -0.00103658      -0.00392301
As       5.23860578       1.20437123       1.32496341      -2.99239675       0.00644348      -0.00032020       0.00124634
N        0.54022507       6.12282935       8.41657830      -7.33861740       0.00730870       0.00207803       0.00311836
N        0.11173510       3.66233996       6.49881248      -7.38207851       0.00625108      -0.00038460       0.00134086
N        1.40157261       0.40369891      14.68028324      -7.38337072      -0.00222920      -0.00478072       0.00006414
N        2.91493973       4.46966497       9.86407342      -7.38337098      -0.00223031      -0.00477658      -0.00006427
N        1.62510207       7.72830612       1.68264013      -7.38207886       0.00624971      -0.00038392      -0.00134052
N       -2.01467675       6.09514205       0.23527165      -7.33924778      -0.00151773      -0.00131562      -0.00698052
N        2.48642140       2.00909205       7.94618064      -7.33924847      -0.00151574      -0.00131705       0.00698036
N        5.04132332       2.03677937      16.12777880      -7.33861792       0.00730805       0.00207797      -0.00311830
F       -2.42791969       6.01040839       2.92595598      -4.99150995       0.00242388       0.00231002      -0.00309884
F        0.95355285       6.20757958      11.10740673      -4.99175605      -0.00198312      -0.00259278      -0.00296914
F        5.45465084       2.12152970      13.43695043      -4.99175600      -0.00198506      -0.00259198       0.00296560
F        0.12442277       0.95670800       6.66979776      -4.98178535       0.00172002       0.00543357      -0.00344071
F        2.07317835       1.92435865       5.25549636      -4.99150974       0.00242663       0.00230879       0.00309477
F        1.63778966       5.02267416       1.51165454      -4.98178563       0.00171771       0.00543142       0.00344106
F        2.90228379       7.17519878       9.69309581      -4.98208056       0.00021928      -0.00371257       0.00386662
F        1.38891685       3.10923266      14.85126104      -4.98208059       0.00021825      -0.00371376      -0.00386675
F        0.75413932       1.57010805       2.12322268      -5.01076099       0.00758455      -0.00433165      -0.00576880
F        0.75922459       2.49586041      10.30466814      -5.01115444      -0.00756487       0.00427040      -0.00537317
F        2.27259130       6.56182649      14.23968900      -5.01115453      -0.00756819       0.00426970       0.00537133
F        2.26750576       5.63607416       6.05822934      -5.01076056       0.00758450      -0.00433135       0.00576897
F        4.17154138       2.15170250       2.29081814      -5.10042281       0.01245596       0.00198181       0.00247420
F        3.35628075       1.89418304      10.47226320      -5.10092590      -0.01204106      -0.00224472       0.00296746
F       -1.14481783       5.98023285      14.07209371      -5.10092663      -0.01203591      -0.00224902      -0.00297235
F       -0.32955731       6.23775218       5.89063459      -5.10042339       0.01245460       0.00198340      -0.00247557
