4
Lattice="3.446504780608309 -9.924578601045753e-08 1.0622672754513325 1.5595484312068955 3.073467726437451 1.0622672727474654 -0.029184672992971773 -0.017917934451074383 6.216877348794742" Properties=species:S:1:pos:R:3:energies:R:1:forces:R:3 material_id=wbm-2-28424 energy=-26.91534226583289 free_energy=-26.91534226583289 stress="-0.0010565025586118607 -0.00010898931976388217 0.0005758688028692945 -0.00010898931976388217 -0.0009458973702506115 0.00035355752671861025 0.0005758688028692945 0.00035355752671861025 -0.002747590512736107" pbc="T T T"
Ca      -0.00000000      -0.00000000       0.00000002      -3.79980843       0.00000001       0.00000008      -0.00000028
Nd       2.48843426       1.52777484       4.17070598      -6.75158399      -0.00000014      -0.00000020       0.00000003
N        3.75552426       2.30570507       6.18184894      -8.18197487      -0.01014015      -0.00622547       0.03289967
N        1.22134428       0.74984463       2.15956290      -8.18197498       0.01014028       0.00622560      -0.03289941
