6
Lattice="4.333714226247976 3.5637593696097395e-09 -3.927413983956907e-09 1.3606349492656578e-09 4.740278257385831 2.7369653324428582 -4.773893300130042e-09 -0.00011488779181979428 5.473684152767403" Properties=species:S:1:pos:R:3:energies:R:1:forces:R:3 material_id=wbm-4-20941 energy=-43.25476404639723 free_energy=-43.25476404639723 stress="0.0020272560291152123 1.5918387748210051e-09 -8.259935713590036e-10 1.5918387748210051e-09 -0.0025577729476469672 9.661691278185221e-07 -8.259935713590036e-10 9.661691278185221e-07 -0.0025566462863781505" pbc="T T T"
Sm      -0.00000000       0.00000000       0.00000001      -4.50634812       0.00000001       0.00000006      -0.00000001
Mn       2.16685712       2.37013913       1.36848267      -7.89486374      -0.00000012       0.00000001      -0.00000010
Mn       2.16685712      -0.00005744       2.73684207      -7.89486311      -0.00000010      -0.00000021       0.00000005
Mn       2.16685710       2.37008167       4.10532475      -7.89487707       0.00000000       0.00000001      -0.00000002
Pd      -0.00000001       3.16010872       5.47376602      -7.53190601       0.00000013       0.00000123       0.00000230
Pd      -0.00000001       1.58005465       2.73688345      -7.53190599       0.00000008      -0.00000109      -0.00000221
