4
Lattice="4.014688351186735 -1.444521350924958e-09 2.0755293533223718 1.1121614931966959 3.816658009184763 2.7693130867316067 0.0397211391023381 -0.05297111518714425 4.843730323794486" Properties=species:S:1:pos:R:3:energies:R:1:forces:R:3 material_id=wbm-4-38352 energy=-25.664845801716133 free_energy=-25.664845801716133 stress="-0.0012478704871321058 -0.0008079124224603815 -0.001185411887756707 -0.0008079124224603815 -0.0007833378935819381 0.0015627483648136768 -0.001185411887756707 0.0015627483648136768 0.0004322196941675192" pbc="T T T"
Ce       3.87492846       2.82276485       7.26642868      -4.52725978       0.00000211      -0.00000233      -0.00000219
V        1.29164457       0.94091927       2.42214113      -8.36870367      -0.00000375       0.00000564       0.00000047
Ge       5.12689533       3.81689714       4.84475394      -6.38444119      -0.00002660      -0.00022916       0.00005405
Ge       2.58324082       1.88160333       4.84437229      -6.38444117       0.00002824       0.00022585      -0.00005233
