5
Lattice="3.3001050552460938 -1.6065131383742441e-09 1.9459624544752607e-09 -3.1234542825769394e-09 3.7115974734449777 -1.1611393017279725 4.477807276952104e-09 0.13019361891140213 6.929019268255691" Properties=species:S:1:pos:R:3:energies:R:1:forces:R:3 material_id=wbm-5-11711 energy=-19.724941906488255 free_energy=-19.724941906488255 stress="-0.0016442084192008553 -7.14134652601817e-10 -1.1553599220847595e-09 -7.14134652601817e-10 0.0019089661353680336 3.898709071582985e-05 -1.1553599220847595e-09 3.898709071582985e-05 0.002028340316879357" pbc="T T T"
Mg       1.65005252       2.45450968       1.33325575      -0.51088306       0.00000004       0.00148008       0.00495034
Mg       1.65005252       1.38728140       4.43462426      -0.51088311       0.00000013      -0.00148006      -0.00495029
Ni      -0.00000000       0.76102729       2.43272704      -7.16308028      -0.00000009       0.00585450       0.01855768
Ni       0.00000001       3.08076380       3.33515290      -7.16308089      -0.00000004      -0.00585441      -0.01855776
Sn       0.00000000       0.00000000      -0.00000001      -4.37701456      -0.00000003      -0.00000011       0.00000003
