12
Lattice="7.880539411643186 -1.0242508734515257e-09 4.4121381686079124e-10 -3.9402697078891813 6.8247473265904475 -4.513193375284743e-09 4.860165447876956e-10 -5.244947095132525e-09 8.13093719812587" Properties=species:S:1:pos:R:3:energies:R:1:forces:R:3 material_id=wbm-1-10532 energy=-33.01592909702403 free_energy=-33.01592909702403 stress="-0.00020756209613559653 -6.293565401487315e-09 -1.0673345066382682e-09 -6.293565401487315e-09 -0.00020757738091542975 -2.1334564255739772e-10 -1.0673345066382682e-09 -2.1334564255739772e-10 0.0013393364918567372" pbc="T T T"
As      -0.00000000       4.54983149       2.03273437      -1.59998667       0.00000011       0.00000138      -0.00000110
As       3.94026956       2.27491587       6.09820298      -1.59998683       0.00000360      -0.00000252      -0.00000107
Cl      -1.88609881       5.63877124       2.03273430      -3.04018448      -0.02392725       0.01381431       0.00000001
Cl       3.94026974       4.45279497       6.09820287      -3.04018458      -0.00000026       0.02763167       0.00000002
Cl       3.94026971       2.27491579       0.21807288      -2.89371232      -0.00000008      -0.00000001       0.03209339
Cl      -0.00000001       4.54983153       4.28354149      -2.89371241       0.00000005       0.00000005       0.03209323
Cl       0.00000001       4.54983154       7.91286426      -2.89371225      -0.00000007      -0.00000002      -0.03209235
Cl       3.94026971       2.27491577       3.84739564      -2.89371228      -0.00000013      -0.00000001      -0.03209228
Cl       5.82636849       1.18597610       6.09820288      -3.04018410       0.02392635      -0.01381385       0.00000005
Cl       0.00000002       2.37195223       2.03273431      -3.04018451       0.00000000      -0.02762992      -0.00000002
Cl       1.88609884       5.63877126       2.03273431      -3.04018423       0.02392712       0.01381423       0.00000014
Cl       2.05417098       1.18597613       6.09820287      -3.04018443      -0.02392944      -0.01381531      -0.00000002
