4
Lattice="4.124554601776115 -6.150149053539968e-09 -5.652118388712348e-09 -2.062277309925853 3.7599905599545664 2.06239810348717 -5.652045212955498e-09 -0.0002651017587543189 4.124551096449366" Properties=species:S:1:pos:R:3:energies:R:1:forces:R:3 material_id=wbm-2-14796 energy=-27.880671492318093 free_energy=-27.880671492318093 stress="-0.0008310468359407422 -5.521617384826328e-09 -4.660276699978797e-09 -5.521617384826328e-09 0.0015708305491121577 -1.561803705127443e-05 -4.660276699978797e-09 -1.561803705127443e-05 -0.0008317851903409002" pbc="T T T"
Zr       2.06227729       1.87979644       4.12461238      -6.62850736       0.00000006       0.00000015      -0.00000019
Cu      -0.00000001       1.87992898       2.06233682      -3.92410136       0.00000010       0.00000026       0.00000030
Pt       0.00000001      -0.00026615       4.12456501      -8.66403191      -0.00000040       0.00000860      -0.00000793
Pt      -0.00000002       3.75985909       4.12465973      -8.66403087       0.00000024      -0.00000900       0.00000781
