6
Lattice="3.9646107205507697 2.415377519970652e-09 -1.3249423718585783e-09 2.4153776563880665e-09 3.964610712531381 -5.0709149855863875e-09 -3.057109979926446e-09 -1.0700799763035902e-08 7.067783987701112" Properties=species:S:1:pos:R:3:energies:R:1:forces:R:3 material_id=wbm-3-75154 energy=-34.15293701147896 free_energy=-34.15293701147896 stress="-0.001496153906979946 -7.013378396719272e-10 -1.0867942431782486e-09 -7.013378396719272e-10 -0.001496159098778357 1.633999727287974e-10 -1.0867942431782486e-09 1.633999727287974e-10 -0.0020582341372834064" pbc="T T T"
Ti       2.97345802       2.97345802       5.27917844      -6.30767402       0.00000009       0.00000000       0.03482915
Ti       0.99115267       0.99115268       1.78860554      -6.30767400       0.00000013      -0.00000001      -0.03482881
Se       2.97345806       2.97345803       2.66876236      -5.66429805       0.00000002      -0.00000004      -0.03516093
Se       0.99115269       0.99115268       4.39902162      -5.66429845       0.00000006       0.00000002       0.03516059
Se       2.97345804       0.99115267      -0.00000001      -5.10449625      -0.00000019       0.00000014       0.00000016
Se       0.99115268       2.97345802       0.00000001      -5.10449625      -0.00000010      -0.00000012      -0.00000016
