9
Lattice="4.682346577200566 -2.786589508509834e-05 5.521808280775701e-05 9.31156272404476e-06 4.765471433660463 2.75133701508248 -5.155794505684613e-05 -8.9626098879714e-06 5.5026878049417025" Properties=species:S:1:pos:R:3:energies:R:1:forces:R:3 material_id=wbm-1-20988 energy=-28.44089979869234 free_energy=-28.44089979869234 stress="-0.003456720414894268 2.5681034502113075e-08 3.368533566129512e-08 2.5681034502113075e-08 -0.0032271145819193488 -4.0864653173668606e-07 3.368533566129512e-08 -4.0864653173668606e-07 -0.00322758862276194" pbc="T T T"
Ba       3.44329071       3.17695615       5.50272673      -3.00650496      -0.00409704      -0.00000393      -0.00000741
Ba       1.23901369       1.58847844       2.75135331      -3.00650499       0.00409700       0.00000398       0.00000756
Zn      -0.00000003       0.00000000       0.00000001      -0.36922365       0.00000003       0.00000019      -0.00000058
H        0.97825140       1.55024712       5.50269624      -3.67644369       0.01152691       0.01340620      -0.00000015
H        0.97828284       3.99033151       4.09391284      -3.67644352       0.01152662      -0.00670339       0.01161058
H        0.97825306       3.99032344       6.91146531      -3.67644605       0.01153261      -0.00670005      -0.01160377
H        3.70405294       3.21518749       2.75138380      -3.67644339      -0.01152708      -0.01340632       0.00000024
H        3.70402149       0.77510311       4.16016717      -3.67644353      -0.01152646       0.00670327      -0.01161033
H        3.70405123       0.77511117       1.34261473      -3.67644603      -0.01153259       0.00670005       0.01160386
