10
Lattice="4.048349732236036 -0.000627868712730194 0.9631191998841622 1.9742218620069723 5.13531983627446 0.6943223628870128 -0.03178869884921058 -0.0025630706345571123 9.123526443238802" Properties=species:S:1:pos:R:3:energies:R:1:forces:R:3 material_id=wbm-2-46242 energy=-48.63689522201426 free_energy=-48.63689522201426 stress="0.0007225582144973362 -0.000514332686745245 -2.2019117454652833e-05 -0.000514332686745245 0.0014881494497344082 0.002115786854462751 -2.2019117454652833e-05 0.002115786854462751 0.0008049944220390445" pbc="T T T"
Lu       1.79798328       1.41049695       1.43294948      -4.28341010       0.00378239       0.02556328      -0.01557003
Lu       2.65288182       1.53734736       6.82996809      -4.06189342       0.00535774      -0.00351942      -0.02357551
Lu       4.19279962       3.72163195       9.34801853      -4.28341044      -0.00378253      -0.02556324       0.01557016
Lu       3.33790106       3.59478154       3.95099991      -4.06189308      -0.00535767       0.00351940       0.02357563
Zn       3.34241175       0.58258161       3.92981454      -1.98384240      -0.00568642      -0.00417196       0.02574731
Zn       2.64837116       4.54954729       6.85115347      -1.98384236       0.00568659       0.00417186      -0.02574756
Si       4.23512188       0.80479406       9.16839956      -7.23942380       0.00307318       0.00132039      -0.01273345
Si       1.11285919       1.48246987       4.31220443      -6.74987790       0.00044528       0.04665612       0.00056471
Si       1.75566102       4.32733483       1.61256843      -7.23942381      -0.00307316      -0.00132032       0.01273352
Si       4.87792370       3.64965903       6.46876359      -6.74987791      -0.00044538      -0.04665611      -0.00056478
