4
Lattice="3.7009282194 0.0 2.1367319089 1.2336427431 3.4892685875 2.1367319069 0.0 0.0 4.27346381" Properties=species:S:1:pos:R:3:energies:R:1:forces:R:3 material_id=wbm-4-2887 energy=-30.612439729227667 free_energy=-30.612439729227667 stress="-0.0009200436171762786 3.223552344508693e-10 6.240992569705854e-10 3.223552344508693e-10 -0.000920036215515174 -2.336912468312504e-09 6.240992569705854e-10 -2.336912468312504e-09 -0.0009200381787849883" pbc="T T T"
Ti       2.46728548       1.74463429       4.27346381      -6.67303498      -0.00000006       0.00000007       0.00000003
Al       0.00000000       0.00000000       0.00000000      -3.34714252       0.00000007      -0.00000008       0.00000007
Ni       3.70092822       2.61695144       6.41019572      -7.53165626      -0.00000004      -0.00000011      -0.00000005
Os       1.23364274       0.87231715       2.13673191     -13.06060597       0.00000003       0.00000012      -0.00000006
