10
Lattice="4.629767800054268 -5.853697970085345e-09 -4.5450716714089364e-09 -1.3301332071007293e-08 7.125685903293728 5.348344965474097e-08 -8.970765692042267e-09 5.348345134781213e-08 7.125685927002367" Properties=species:S:1:pos:R:3:forces:R:3 material_id=wbm-1-47682 energy=-80.68725588891583 free_energy=-80.68725588891583 stress="0.0019605719197749714 -1.2072149911369195e-09 1.1239020193700574e-09 -1.2072149911369195e-09 5.771990612446821e-05 -1.1204713139594175e-09 1.1239020193700574e-09 -1.1204713139594175e-09 5.770676573353867e-05" pbc="T T T"
Eu       2.31488390       2.31718809       1.24565483       0.00000032       0.02468824      -0.02468801
Eu       2.31488390       1.24565483       4.80849784       0.00000019      -0.02468800      -0.02468843
Eu       2.31488390       4.80849780       5.88003124       0.00000018      -0.02468842       0.02468790
Eu       2.31488389       5.88003111       2.31718831       0.00000011       0.02468770       0.02468789
In      -0.00000004       0.00000007      -0.00000000      -0.00000006      -0.00000080       0.00000166
In      -0.00000002       3.56284295       3.56284287      -0.00000021       0.00000089      -0.00000018
Rh       0.00000007       4.46954740       0.90670428      -0.00000006       0.01122414       0.01122328
Rh       0.00000003       6.21898136       4.46954760      -0.00000005      -0.01122296       0.01122244
Rh      -0.00000005       0.90670434       2.65613873      -0.00000023       0.01122213      -0.01122360
Rh      -0.00000002       2.65613876       6.21898124      -0.00000018      -0.01122298      -0.01122287
