12
Lattice="5.232520040667907 0.000289541434213708 -2.6034550585047845e-09 -2.6158305753736175 4.53174386867482 -1.5837111568065763e-08 -5.548015204098814e-09 -3.870417261359415e-08 7.950739094094944" Properties=species:S:1:pos:R:3:forces:R:3 material_id=wbm-4-20981 energy=-81.76082247955924 free_energy=-81.76082247955924 stress="0.002942582258286493 -3.0275892811186812e-05 -3.4477738521460266e-09 -3.0275892811186812e-05 0.0029075930490056337 1.0957622170987526e-09 -3.4477738521460266e-09 1.0957622170987526e-09 -0.0014173623219195769" pbc="T T T"
Yb       2.61621898       1.51088084       7.43650995      -0.00009947       0.00005739       0.00120253
Yb       0.00047040       3.02115269       3.46114032       0.00010016      -0.00005820       0.00120204
Yb       2.61621903       1.51088075       4.48959873      -0.00009992       0.00005832      -0.00120355
Yb       0.00047038       3.02115266       0.51422914       0.00010010      -0.00005826      -0.00120292
Mn      -1.22456679       3.72846085       5.96305431      -0.00638656       0.00368774       0.00000135
Mn       2.61673156       2.92627270       1.98768476       0.00004447       0.00793768      -0.00000023
Mn       1.39068269       0.80278939       1.98768477      -0.00685172      -0.00400695      -0.00000010
Mn       1.22600677       3.72924410       5.96305430       0.00685129       0.00400734       0.00000129
Mn      -0.00004199       1.60576058       5.96305426      -0.00004497      -0.00793795       0.00000155
Mn       3.84125660       0.80357234       1.98768481       0.00638624      -0.00368732      -0.00000123
Os      -0.00000005      -0.00000007       3.97536968       0.00000009      -0.00000007      -0.00000142
Os      -0.00000005       0.00000001      -0.00000003       0.00000031       0.00000010       0.00000075
