5
Lattice="3.4905402866068878 1.5100589362304011e-09 3.5199687373834507e-09 -1.7452701409850238 3.0228965755906074 2.375422060724635e-09 1.0385514026201255e-08 1.4010009128618266e-08 10.227581732902056" Properties=species:S:1:pos:R:3:forces:R:3 material_id=wbm-2-29367 energy=-36.15559137189112 free_energy=-36.15559137189112 stress="-0.001698512945803648 1.6688254939269433e-09 -2.055746495339735e-09 1.6688254939269433e-09 -0.0016985151303803847 3.1638088617494237e-09 -2.055746495339735e-09 3.1638088617494237e-09 0.0010225938091581583" pbc="T T T"
Zr       0.00000001       2.01526439       3.98856858      -0.00000025       0.00000038       0.04000922
Zr       1.74527016       1.00763222       6.23901318       0.00000012      -0.00000014      -0.04000754
Br       0.00000001       2.01526439       8.19805967      -0.00000002       0.00000007      -0.04291722
Br       1.74527015       1.00763220       2.02952208       0.00000012      -0.00000008       0.04291523
N       -0.00000000      -0.00000000       5.11379083       0.00000009      -0.00000027       0.00000004
