9
Lattice="4.631231714411144 -3.6639753981224487e-09 -5.190163185608998e-09 -8.307407750916006e-10 6.271804129659421 -3.621027834627755 -8.320268244645357e-09 -1.9603262357537214e-08 7.242055652274974" Properties=species:S:1:pos:R:3:forces:R:3 material_id=wbm-4-13248 energy=-33.703104991328274 free_energy=-33.703104991328274 stress="0.0018950256491840046 9.885725503086534e-10 4.436372237015186e-10 9.885725503086534e-10 0.0019334264122707874 -2.0391963161305023e-09 4.436372237015186e-10 -2.0391963161305023e-09 0.0019334199795920544" pbc="T T T"
Sr      -0.00000003      -0.00000006       4.22499554      -0.00000013       0.00000086      -0.01062610
Sr       0.00000000       3.65895344      -2.11249781       0.00000002      -0.00920235       0.00531373
Sr      -0.00000003       2.61285066       1.50853003      -0.00000012       0.00920207       0.00531298
Ga       2.31561585       4.83572103       2.79190488       0.00000001      -0.02167813      -0.01251597
Ga       2.31561585       1.43608310      -0.82912295       0.00000001       0.02167804      -0.01251588
Ga       2.31561585      -0.00000005       1.65824592      -0.00000006       0.00000086       0.02503173
Ge       2.31561587       2.09060138       3.62102781       0.00000002      -0.00000079       0.00000001
Ge       2.31561588       4.18120279       0.00000000       0.00000014      -0.00000029      -0.00000017
Pd       0.00000000       0.00000002       0.00000004       0.00000009      -0.00000030      -0.00000029
