10
Lattice="5.451115058731325 -2.375349299707945e-09 1.0588901999227408e-09 -2.6434400195669612e-09 4.892842228885409 -2.824883777419852 1.0892619141472061e-09 5.273203285898315e-09 5.649767574160764" Properties=species:S:1:pos:R:3:forces:R:3 material_id=wbm-2-6091 energy=-66.62673413084684 free_energy=-66.62673413084684 stress="0.0011627619634403505 3.318666471045766e-10 7.730296902492435e-10 3.318666471045766e-10 -0.001646666652740977 1.8871666818916114e-09 7.730296902492435e-10 1.8871666818916114e-09 -0.0016466604706996115" pbc="T T T"
K        2.72555751       0.00000001      -0.00000001       0.00000010      -0.00000000       0.00000018
K        0.00000002      -0.00000000      -0.00000001      -0.00000014       0.00000015       0.00000012
B        2.72555756       1.63094740       2.82488378       0.00000020       0.00000110       0.00000055
B        2.72555758       3.26189480       0.00000001      -0.00000041       0.00000144      -0.00000004
Ir       1.30369962       2.44642112      -1.41244187       0.02873334       0.00000004      -0.00000014
Ir       1.30369960      -0.00000003       2.82488379       0.02873382      -0.00000134       0.00000013
Ir       1.30369959       2.44642115       1.41244189       0.02873281      -0.00000010      -0.00000020
Ir       4.14741544      -0.00000000       2.82488380      -0.02873381      -0.00000103      -0.00000008
Ir       4.14741541       2.44642113      -1.41244187      -0.02873328      -0.00000002      -0.00000027
Ir       4.14741543       2.44642115       1.41244188      -0.02873265      -0.00000013      -0.00000041
