12
Lattice="4.777533712568734 -7.337065645011937e-07 8.765822515052998e-06 1.0702320616871814e-06 6.80668299906075 0.0001652786117549172 -6.4535489829743955e-06 -0.0001809521589144663 8.276006387203404" Properties=species:S:1:pos:R:3:forces:R:3 material_id=wbm-3-60173 energy=-58.75425365602082 free_energy=-58.75425365602082 stress="-0.001651277386016678 8.678746767859342e-10 1.6667567235851138e-07 8.678746767859342e-10 -0.00046406877598552973 4.6795156663909723e-07 1.6667567235851138e-07 4.6795156663909723e-07 -0.001621530286629393" pbc="T T T"
Tb       3.58315490       3.40411151       2.06592466      -0.00000461       0.00132867      -0.00666282
Tb       1.19438356       6.80569265       6.20397354       0.00000462      -0.00082813      -0.00667458
Tb       3.58315436       0.00080700       2.07221225      -0.00000503       0.00083343       0.00667523
Tb       1.19438296       3.40238905       6.21026155       0.00000462      -0.00133346       0.00666283
In       1.19438451       1.70650525       3.44845314       0.00001201       0.00640055       0.00057035
In       1.19438935       5.10992145       0.68966640       0.00000590       0.00638744      -0.00008341
In       3.58314867       1.69657838       7.58651968      -0.00000778      -0.00638684       0.00008188
In       3.58315314       5.09999551       4.82773289      -0.00000946      -0.00640164      -0.00057350
Pd       1.19438571       1.70034564       0.68994828       0.00000469      -0.00171120      -0.00027173
Pd       3.58315205       5.10615461       7.58623757      -0.00000324       0.00171126       0.00027328
Pd       3.58315126       1.70287151       4.82795878      -0.00000904       0.00171743      -0.00020963
Pd       1.19438675       5.10362846       3.44822695       0.00000729      -0.00171758       0.00021210
