9
Lattice="3.9871403195040944 2.24032326998968e-09 -4.1841160688132224e-10 3.85749450730594e-09 6.141621875343904 -3.5472021619698806 -7.389825568221555e-10 0.00015654272316560617 7.092401735160839" Properties=species:S:1:pos:R:3:forces:R:3 material_id=wbm-4-1834 energy=-26.07263069529266 free_energy=-26.07263069529266 stress="-0.00032217615987949937 -1.762266842978003e-09 -1.3059989091331142e-09 -1.762266842978003e-09 0.0022800744859767332 -1.3067851142928631e-05 -1.3059989091331142e-09 -1.3067851142928631e-05 0.002295174679189652" pbc="T T T"
Al       0.00000000       6.14158535      -1.73301171      -0.00000001       0.00003489      -0.00956801
Al      -0.00000001       4.57061150       2.63827979      -0.00000001       0.00830166       0.00479282
Al      -0.00000001       1.57110535       6.18498407      -0.00000000      -0.00826723       0.00481477
Cd       1.99357019       6.14178458       0.69719606      -0.00000011      -0.00003614      -0.00255840
Cd       1.99357018       2.46642534       1.42368702      -0.00000044       0.00209817       0.00121115
Cd       1.99357019       3.67560176       4.96966314      -0.00000009      -0.00223478       0.00124837
Au       1.99357016      -0.00002964      -0.00001711      -0.00000006       0.00000510       0.00000274
Au       0.00000000       2.04725702       3.54587518       0.00000018       0.00006220       0.00000741
Au      -0.00000004       4.09444644      -0.00071887       0.00000057       0.00003609       0.00004907
