5
Lattice="4.347260698631962 1.2748264044858465e-07 0.8037778772360197 2.0992308526571346 3.806832263744452 0.8042816075949776 0.05437977641291126 0.03245491464437901 11.863924474063428" Properties=species:S:1:pos:R:3:forces:R:3 material_id=wbm-2-47446 energy=-23.793033215989215 free_energy=-23.793033215989215 stress="-0.001135918633451701 3.810044394633141e-05 -0.0003491952962191428 3.810044394633141e-05 -0.0011734157535538837 -0.000206040901797243 -0.0003491952962191428 -0.000206040901797243 0.000688141289789014" pbc="T T T"
Pr       4.00419496       2.36436851       2.65926412       0.00330629       0.00194160      -0.01788079
Pr       2.49667908       1.47492014      10.81271093      -0.00330606      -0.00194154       0.01788037
Si       0.05438117       0.03245554      11.86392008      -0.00000055       0.00000042       0.00000028
I        1.48257383       0.87496403       4.13949444       0.00592513       0.00353606      -0.03204565
I        5.01829973       2.96432505       9.33248070      -0.00592482      -0.00353654       0.03204581
