11
Lattice="5.928822716839796 -0.1990781303693897 -0.5342006885396262 -0.6118705314185522 5.024736631490212 -1.8507190821420294 -0.13820269543192032 -0.2737488747553044 5.380844420150183" Properties=species:S:1:pos:R:3:forces:R:3 material_id=wbm-3-55690 energy=-93.14537649980298 free_energy=-93.14537649980298 stress="-0.0029377518552984195 0.00015369848152037727 0.00010725595732933323 0.00015369848152037727 -0.00016179893110787954 0.00208392290791488 0.00010725595732933323 0.00208392290791488 -0.0014999152654265819" pbc="T T T"
Ta      -0.28953213       1.41903451       3.07047275      -0.00091021       0.01019074      -0.01390793
Ta      -0.46054120       3.33195347       0.45965225       0.00091272      -0.01019532       0.01391486
Fe       3.07327493       3.38090076       2.27584845       0.01198361       0.01835687       0.01266450
Fe       2.10547497       1.17100856       0.72007611      -0.01198908      -0.01835106      -0.01266084
O        4.19791146       4.50955005       0.86563260       0.00353441      -0.00498454       0.01570881
O        4.38181548       2.45238450       3.67332626       0.00186488       0.01364517      -0.00972480
O        0.83775051       2.57563258       1.83226446      -0.00973967      -0.01556239      -0.01076390
O        2.96441120      -0.09953900      -0.26710030       0.00000350      -0.00000519      -0.00000356
O        4.34099902       1.97627704       1.16366001       0.00973915       0.01556074       0.01076560
O        0.79693383       2.09952516      -0.67740143      -0.00186721      -0.01364620       0.00971756
O        0.98083808       0.04235936       2.13029217      -0.00353215       0.00499157      -0.01571047
