12
Lattice="3.8067021446546256 -2.5816800257256563e-09 -1.0042201458004232 -3.6057986802597815e-09 6.4141931674539805 4.399069480843484e-10 -0.014649163962604612 1.3497948874770991e-09 7.667391815408858" Properties=species:S:1:pos:R:3:forces:R:3 material_id=wbm-4-12109 energy=-88.78717696333378 free_energy=-88.78717696333378 stress="0.0026144745042669033 1.3386394012592728e-08 -3.471976724646948e-05 1.3386394012592728e-08 -0.001683763457100127 1.2884641026516764e-08 -3.471976724646948e-05 1.2884641026516764e-08 0.002639524893102578" pbc="T T T"
La       0.43342318       4.81064500       1.64517175       0.00300633      -0.00000197       0.01048950
La       3.35862988       1.60354827       5.01799988      -0.00300619       0.00000011      -0.01048904
Fe       1.90335106       3.20709652      -0.50211005       0.00000021       0.00000038       0.00000007
Fe       1.90335105       0.00000001      -0.50211006      -0.00000018      -0.00000015      -0.00000068
Fe       2.58649153       0.42253833       2.08981188       0.00142490       0.00553083       0.00552434
Fe       1.20556140       5.99165478       4.57335972      -0.00142628      -0.00553013      -0.00552254
Fe       1.20556140       3.62963495       4.57335986      -0.00142548       0.00553074      -0.00552497
Fe       2.58649161       2.78455818       2.08981195       0.00142526      -0.00552953       0.00552422
Fe       0.27296502       1.60354822       1.03661981       0.01260970       0.00000131       0.04658099
Fe       3.51908795       4.81064493       5.62655181      -0.01260938      -0.00000077      -0.04657952
Co       0.87028564       1.60354821       3.30145428      -0.01091313       0.00000196      -0.04058529
Co       2.92176733       4.81064498       3.36171740       0.01091420      -0.00000288       0.04058304
