7
Lattice="3.659113301403598 -5.006043046992224e-09 1.7334636286084523e-08 -5.0060455240501075e-09 3.659113325415304 -1.3467761185582192e-08 2.8865310174888203e-08 -2.425047900986058e-08 7.662865695408595" Properties=species:S:1:pos:R:3:forces:R:3 material_id=wbm-3-20255 energy=-25.677395231162894 free_energy=-25.677395231162894 stress="-0.0033177118696916365 -1.5535997156316804e-09 4.862399422915835e-09 -1.5535997156316804e-09 -0.0033176995160041725 4.48135757019639e-09 4.862399422915835e-09 4.48135757019639e-09 -0.0015248804534197277" pbc="T T T"
Zn       1.82955661       1.82955669       0.00000007       0.00000060      -0.00000008      -0.00000078
Cu      -0.00000001       1.82955672       1.83281451      -0.00000039       0.00000008       0.02119271
Cu       0.00000007       1.82955653       5.83005119      -0.00000067       0.00000022      -0.02119299
Cu       1.82955666       0.00000000       1.83281450       0.00000026       0.00000002       0.02119329
Cu       1.82955662      -0.00000005       5.83005114       0.00000073       0.00000015      -0.02119192
Cu      -0.00000000       0.00000007       0.00000009      -0.00000051      -0.00000020      -0.00000081
Sb       0.00000006      -0.00000005       3.83143277      -0.00000002      -0.00000017       0.00000050
