6
Lattice="3.3071467725960897 -6.9401306941877616e-09 2.4694624106470398e-09 -1.2571703025444148e-08 6.3524155999799445 -0.11302213262387831 3.828485667843013e-09 -0.01792245514346262 5.874024496208437" Properties=species:S:1:pos:R:3:forces:R:3 material_id=wbm-4-33053 energy=-30.396088488302183 free_energy=-30.396088488302183 stress="0.0017088991946819989 6.087187412753466e-09 -5.723554566434124e-09 6.087187412753466e-09 -0.0016746842693246215 0.0006872053461988955 -5.723554566434124e-09 0.0006872053461988955 -0.0016477601549120776" pbc="T T T"
Cr       1.65357335      -0.00896107       2.93701217       0.00000003       0.00000048      -0.00000110
S        0.00000003       5.02261099       3.81684645      -0.00000001      -0.02521929       0.01586713
S        1.65357337       1.31630545       4.84633617      -0.00000013      -0.01164546       0.01934214
S        1.65357337       5.01818758       0.91466615       0.00000016       0.01164560      -0.01934265
S        0.00000003       1.31188214       1.94415614      -0.00000001       0.02521913      -0.01586662
S        0.00000000      -0.00000002      -0.00000008      -0.00000005      -0.00000041       0.00000112
