5
Lattice="2.9686510890503675 -9.62816344328017e-09 0.8677460629016411 0.8865697950741273 5.199858772878647 2.47885876294113 -0.09190274965535954 0.12151259457037455 5.826316828187256" Properties=species:S:1:pos:R:3:forces:R:3 material_id=wbm-2-33437 energy=-21.85537365648439 free_energy=-21.85537365648439 stress="0.0012098488202867718 0.0006644399491551837 0.0006495331205426837 0.0006644399491551837 0.0008098455791129095 -0.002273154912278085 0.0006495331205426837 -0.002273154912278085 -0.000822476885736509" pbc="T T T"
Rb       0.77653903       1.73248497       2.85528558      -0.00292499       0.00715921       0.01000642
Rb       2.98677910       3.58888643       6.31763610       0.00292488      -0.00715984      -0.01000670
Co      -0.00000000      -0.00000010      -0.00000010       0.00000004       0.00000252      -0.00000046
O        2.18017032       4.20997234       3.56522214       0.00121223       0.00628539      -0.00414487
O        1.58314786       1.11139910       5.60769959      -0.00121203      -0.00628729       0.00414558
