10
Lattice="5.885590747465184 0.012149124249938222 -0.10833630991830012 -2.901265671907419 4.061059070185889 2.94419314429604 -0.010981259978853594 -0.04230993396807873 5.789695364323654" Properties=species:S:1:pos:R:3:forces:R:3 material_id=wbm-3-54368 energy=-83.78044590554768 free_energy=-83.78044590554768 stress="-0.0026682891263996628 -0.0007264969400288575 0.00191403874258159 -0.0007264969400288575 0.000647457503039875 0.001501217674746571 0.00191403874258159 0.001501217674746571 0.0002502812712187015" pbc="T T T"
Na       2.93730475      -0.01508031       2.84067958      -0.00000052      -0.00000037      -0.00000027
Eu       3.04506443       2.11945113       5.79864282       0.00722885       0.00752731       0.00306307
Eu      -0.07172056       1.91144717       2.82690932      -0.00722873      -0.00752652      -0.00306278
W       -0.00000023      -0.00000009      -0.00000013       0.00000403      -0.00000124       0.00000094
O       -1.96441328       4.00620105       4.66285234      -0.01181259       0.00142685      -0.01626652
O        1.63117489       0.47656617       4.86466593      -0.02842306      -0.00512813       0.02178641
O        1.34216904       3.55433209       3.76088637       0.02842149       0.00512804      -0.02178629
O        4.93775724       0.02469718       3.96269986       0.01181187      -0.00142716       0.01626597
O       -0.43695133       1.83137784       6.16830357       0.00283776      -0.01966082      -0.00229047
O        3.41029515       2.19952036       2.45724870      -0.00283892       0.01966234       0.00228966
