10
Lattice="3.4361347397756465 -2.2511443349535357e-09 -4.963579017388466e-09 -1.7180673666289081 2.9757799756741234 -3.4203227562966205e-09 -1.7922047855983136e-08 -2.460370443249119e-08 12.657233838423569" Properties=species:S:1:pos:R:3:forces:R:3 material_id=wbm-3-43791 energy=-84.81076067467815 free_energy=-84.81076067467815 stress="-0.0033067435201232336 8.194991474558483e-10 -5.615553835278441e-09 8.194991474558483e-10 -0.0033067300407602115 8.296391680491443e-09 -5.615553835278441e-09 8.296391680491443e-09 -0.001725958345989014" pbc="T T T"
Ti       1.71806736       0.99192663       5.14081439      -0.00000002      -0.00000005      -0.00094072
Ti      -0.00000003       1.98385328      11.46943126      -0.00000008       0.00000049      -0.00093801
Ti       0.00000000       1.98385331       7.51641940       0.00000014      -0.00000018       0.00094003
Ti       1.71806738       0.99192666       1.18780266       0.00000010       0.00000009       0.00093836
Se      -0.00000004      -0.00000000       9.49292544      -0.00000008      -0.00000019      -0.00000273
Se      -0.00000000      -0.00000002       3.16430840      -0.00000007       0.00000012       0.00000170
N       -0.00000002       1.98385330       5.47015522      -0.00000005       0.00000002      -0.04695355
N        1.71806736       0.99192666      11.79877184       0.00000012      -0.00000056      -0.04694985
N        1.71806739       0.99192666       7.18707871      -0.00000006       0.00000026       0.04695455
N       -0.00000001       1.98385329       0.85846183      -0.00000002      -0.00000005       0.04695020
