6
Lattice="4.743843718077667 -4.446469876048183e-10 -2.293445906108416e-09 -2.3719218572903125 4.108289201978106 9.59065629243932e-10 -1.2128756077666675e-08 -1.9527612024834263e-09 12.397095636818298" Properties=species:S:1:pos:R:3:forces:R:3 material_id=wbm-1-22986 energy=-17.610084048390135 free_energy=-17.610084048390135 stress="0.000648761283960084 5.80023877506391e-10 -1.3002951841725927e-10 5.80023877506391e-10 0.0006487644907808114 5.323987860013294e-10 -1.3002951841725927e-10 5.323987860013294e-10 0.0011724384604444348" pbc="T T T"
K        2.37192186       1.36942976      -0.05219640      -0.00000002       0.00000005      -0.00359477
K        0.00000000       2.73885942       6.14635136      -0.00000002       0.00000003      -0.00359460
In      -0.00000002       0.00000004       8.93414439       0.00000003      -0.00000015      -0.03102350
In       0.00000001       0.00000004       2.73559655      -0.00000002      -0.00000014      -0.03102476
Sb       2.37192183       1.36942976       3.70730268       0.00000002       0.00000003       0.03461923
Sb       0.00000000       2.73885940       9.90585046      -0.00000000       0.00000017       0.03461839
