5
Lattice="4.007426177283285 -3.68934070560603e-08 1.6476900299627784 1.2799278197459687 4.71693242063417 2.5841979369064028 0.07349658368332722 0.32773398812098514 5.518417682040169" Properties=species:S:1:pos:R:3:forces:R:3 material_id=wbm-3-77676 energy=-34.31107357941289 free_energy=-34.31107357941289 stress="0.000953551690779512 -0.0006138265823690073 0.00028511051219066194 -0.0006138265823690073 -0.000806316674091993 0.0014929120689462015 0.00028511051219066194 0.0014929120689462015 0.0003773704305401371" pbc="T T T"
Er       4.14634445       3.54455966       7.00699225       0.00952321      -0.01810245      -0.02316304
Er       1.21450612       1.50010679       2.74331343      -0.00952368       0.01810175       0.02316212
Zn      -0.00000007       0.00000006       0.00000001      -0.00000062      -0.00000027      -0.00000022
Os       2.41919041       1.57191680       5.51051493      -0.01095837      -0.03987047       0.02665433
Os       2.94166026       3.47274944       4.23979066       0.01095938       0.03987150      -0.02665318
