6
Lattice="4.324776502948016 -1.969275073551994e-09 2.037734056435162e-09 -3.5631352999247898e-09 4.910961584018146 -2.835344974589496 3.321895433130338e-09 2.7593309549812225e-10 5.6706899358869824" Properties=species:S:1:pos:R:3:forces:R:3 material_id=wbm-4-16842 energy=-38.34528357067086 free_energy=-38.34528357067086 stress="0.0018296270026722774 -9.95414848447425e-10 -1.7860766690986249e-10 -9.95414848447425e-10 0.0005550475457570926 9.170278060292402e-10 -1.7860766690986249e-10 9.170278060292402e-10 0.0005549794837574635" pbc="T T T"
Sm       0.00000014       0.00000001      -0.00000003       0.00000036      -0.00000011      -0.00000004
In      -0.00000003       3.27397439      -0.00000001      -0.00000240       0.00000074      -0.00000026
In      -0.00000002       1.63698719       2.83534497      -0.00000233      -0.00000065       0.00000063
Ir       2.16238820       2.45548082       1.41767248       0.00000216      -0.00000029      -0.00000024
Ir       2.16238821       2.45548078      -1.41767249       0.00000161       0.00000047       0.00000044
Ir       2.16238826       0.00000001       2.83534499       0.00000062      -0.00000022      -0.00000040
