12
Lattice="3.0645946995637035 -3.418516618876096e-09 -3.6857750781278538e-09 -1.5322973460332494 2.654016811130511 2.4652414234804866e-08 -1.751633477769309e-08 1.388570961957595e-07 14.275475854428633" Properties=species:S:1:pos:R:3:forces:R:3 material_id=wbm-1-23759 energy=-67.37680255293174 free_energy=-67.37680255293174 stress="-5.048306083086189e-05 -2.1046346314400054e-09 -4.787617228414326e-09 -2.1046346314400054e-09 -5.0495109659353995e-05 5.5729016899415985e-09 -4.787617228414326e-09 5.5729016899415985e-09 0.003336464821947475" pbc="T T T"
Li      -0.00000002       1.76934463       9.42684894      -0.00000004       0.00000005      -0.01365841
Li       1.53229734       0.88467231       4.84862713       0.00000003      -0.00000008       0.01365760
Li      -0.00000000       0.00000003      -0.00000017       0.00000001       0.00000007       0.00000084
Li      -0.00000002       0.00000007       7.13773800      -0.00000004      -0.00000011       0.00000011
Rh      -0.00000003       1.76934477       2.47394469      -0.00000051      -0.00000530      -0.02485552
Rh       1.53229734       0.88467241      11.80153143       0.00000039      -0.00000218       0.02484339
O        0.00000001       1.76934463      12.89214536       0.00000028      -0.00000041       0.01966870
O        1.53229730       0.88467229       1.38333063       0.00000051       0.00000168      -0.01966187
O       -0.00000004       0.00000003      10.69796616      -0.00000069       0.00000255      -0.03200716
O        0.00000006      -0.00000009       3.57750936      -0.00000004       0.00000360       0.03201192
F       -0.00000001       1.76934460       5.97120897       0.00000005       0.00000014       0.00122498
F        1.53229734       0.88467239       8.30426684       0.00000004      -0.00000000      -0.00122458
