6
Lattice="3.913343743113018 -1.0253642948215766e-08 1.8446013178997506e-08 -1.0253644415440494e-08 3.913343733389158 1.6099212871470773e-08 3.75157224207914e-08 3.233271792526901e-08 8.889695632302145" Properties=species:S:1:pos:R:3:forces:R:3 material_id=wbm-5-2133 energy=-34.26551481148892 free_energy=-34.26551481148892 stress="0.0012941222462934626 -1.7390874106880844e-08 -2.5909126238862667e-08 -1.7390874106880844e-08 0.0012941238851384494 -2.489434986179187e-08 -2.5909126238862667e-08 -2.489434986179187e-08 0.001167501619175362" pbc="T T T"
Tb       2.93500767       2.93500765       6.41484482      -0.00000079      -0.00000081       0.02817310
Tb       0.97833611       0.97833609       2.47485074       0.00000167       0.00000158      -0.02817215
As       2.93501155       0.97833228       0.00000012       0.00003432      -0.00003330      -0.00000065
As       0.97833220       2.93501143       0.00000009      -0.00003443       0.00003343      -0.00000066
Se       2.93500780       2.93500777       3.34870817      -0.00000010      -0.00000019      -0.01071201
Se       0.97833596       0.97833597       5.54098743      -0.00000059      -0.00000072       0.01071238
