11
Lattice="3.8665996077376095 -5.7408265779288175e-05 -0.5722773544349468 -0.08455991531442728 3.8656763630034914 -0.5722694761420235 0.13136167653980782 0.13428992108345453 14.22592263771894" Properties=species:S:1:pos:R:3:forces:R:3 material_id=wbm-3-52265 energy=-63.93869260372273 free_energy=-63.93869260372273 stress="-0.0008809740179345238 6.021864402697179e-05 0.00040291179075963897 6.021864402697179e-05 -0.0008798007588963286 0.0004081644427430335 0.00040291179075963897 0.0004081644427430335 0.002095918876120819" pbc="T T T"
Pr      -0.00000110       0.00003001      -0.00000713       0.00000091      -0.00000017       0.00000176
Ni       0.97298231       2.96213002       6.54072886       0.01300657      -0.01364846       0.00014314
Ni       2.94040968       1.03781642       6.54063695      -0.01300429       0.01365174      -0.00014043
Bi       1.63900859       1.67528224      11.06414146      -0.00165390      -0.00168257      -0.01154754
Bi       2.27439072       2.32468719       2.01722025       0.00165315       0.00168060       0.01154547
Te       3.15247449       3.22225324       7.93801357       0.00475275       0.00510305       0.00982848
Te       0.76091838       0.77769482       5.14335337      -0.00475274      -0.00509920      -0.00983272
O        2.15124741       0.22274221       1.18591912       0.00081840       0.00063834       0.00596171
O        3.73775340       1.84433409      11.89543934      -0.00064249      -0.00082700      -0.00595630
O        0.17564533       2.15563478       1.18592249       0.00064060       0.00082410       0.00595793
O        1.76215177       3.77722519      11.89544286      -0.00081880      -0.00064039      -0.00596160
