12
Lattice="4.395570713546761 -5.002768743979266e-09 -2.8345681251371803e-09 -8.134023164595855e-09 7.005309856321671 -2.2925135627088407e-08 -4.693194568490605e-09 -2.4984625951582037e-08 7.427010482580119" Properties=species:S:1:pos:R:3:forces:R:3 material_id=wbm-3-20567 energy=-53.19829670532194 free_energy=-53.19829670532194 stress="-0.001271891240179667 -1.9782374316693222e-10 -3.877408835100033e-10 -1.9782374316693222e-10 -0.0017538282251681248 -2.1245522298542655e-09 -3.877408835100033e-10 -2.1245522298542655e-09 0.0025913844867000357" pbc="T T T"
Dy       3.29667799       3.42083752       1.59717752      -0.00000002       0.01855845      -0.01373485
Dy       1.09889274       0.08181739       5.31068264      -0.00000022      -0.01855908      -0.01373544
Dy       3.29667808       6.92349252       2.11632781      -0.00000006       0.01855915       0.01373501
Dy       1.09889270       3.58447231       5.82983309      -0.00000015      -0.01855932       0.01373370
Ga       1.09889260       1.41988311       0.65543599       0.00000019       0.04059008       0.01518170
Ga       3.29667803       2.08277176       4.36894132      -0.00000006      -0.04058965       0.01518101
Ga       1.09889271       4.92253786       3.05806908      -0.00000002       0.04059015      -0.01517980
Ga       3.29667793       5.58542688       6.77157445       0.00000106      -0.04059029      -0.01518142
Cu       1.09889264       5.63268621       0.61138384      -0.00000049       0.00578674      -0.02268454
Cu       3.29667808       1.37262353       6.81562653      -0.00000015      -0.00578631       0.02268472
Cu       1.09889268       2.13003140       3.10212126       0.00000001       0.00578631       0.02268484
Cu       3.29667801       4.87527844       4.32488918      -0.00000005      -0.00578621      -0.02268494
