10
Lattice="4.219381679198056 -1.0459367355257209e-09 -4.47068491727471e-09 -1.7755609632930097e-09 7.70959414783549 8.793251752018177e-06 -7.811805583196514e-09 -1.035297744188866e-05 7.70957740514208" Properties=species:S:1:pos:R:3:forces:R:3 material_id=wbm-4-14446 energy=-45.42090392308957 free_energy=-45.42090392308957 stress="0.0013875207735580834 2.241311787198025e-10 -4.396040575877127e-09 2.241311787198025e-10 0.00029647629311405034 -4.4044029226988e-08 -4.396040575877127e-09 -4.4044029226988e-08 0.0002963917634944257" pbc="T T T"
Nd       2.10969082       2.45995262       1.39483229       0.00000049      -0.00509411       0.00508983
Nd       2.10969080       6.31474933       2.45995018       0.00000008      -0.00509332      -0.00509955
Nd       2.10969081       1.39483103       5.24961845       0.00000004       0.00510847       0.00509815
Nd       2.10969082       5.24962845       6.31473246       0.00000011       0.00507545      -0.00506936
Hg      -0.00000002       7.70958326       7.70958005       0.00000001      -0.00000198       0.00000359
Hg      -0.00000003       3.85479787       3.85477943      -0.00000002      -0.00001355       0.00001147
Ge       0.00000005       4.74577946       0.89098263      -0.00000003      -0.00031579      -0.00032770
Ge      -0.00000001       0.89098109       2.96379921      -0.00000025      -0.00031864       0.00030920
Ge       0.00000001       6.81860166       4.74577838      -0.00000003       0.00032278      -0.00032979
Ge       0.00000003       2.96379835       6.81858622      -0.00000039       0.00033070       0.00031412
