4
Lattice="4.0336514296405275 6.662392526180727e-09 2.3288297406729592 1.344550476543656 3.8029630646586434 2.328829751558119 8.607990737362725e-09 1.9418317267262328e-08 4.657659466436437" Properties=species:S:1:pos:R:3:forces:R:3 material_id=wbm-1-34196 energy=-37.54239238312933 free_energy=-37.54239238312933 stress="-0.0026398842719270897 -1.926179235725914e-08 4.909942885849715e-09 -1.926179235725914e-08 -0.00263991853887967 -4.387697130858109e-09 4.909942885849715e-09 -4.387697130858109e-09 -0.002639895349212332" pbc="T T T"
Tb       4.03365144       2.85222231       6.98648920       0.00000056       0.00000107      -0.00000004
Nb       1.34455048       0.95074078       2.32882975      -0.00000111      -0.00000100      -0.00000009
Os      -0.00000000       0.00000002       0.00000000       0.00000094      -0.00000044      -0.00000002
Os       2.68910097       1.90148154       4.65765949      -0.00000049       0.00000040       0.00000010
