4
Lattice="4.049284414003029 1.2822357387820323e-09 -2.38075631370791e-09 -2.0246422072616457 3.9251512274708515 2.0247934589876446 -2.3808475436414136e-09 -0.0002221962382980286 4.049276224795288" Properties=species:S:1:pos:R:3:forces:R:3 material_id=wbm-2-14796 energy=-28.05529125944374 free_energy=-28.05529125944374 stress="0.0010780119495568585 -4.247681679006497e-10 -9.256777470395201e-09 -4.247681679006497e-10 0.0007689760570174758 -6.417040148538042e-06 -9.256777470395201e-09 -6.417040148538042e-06 0.0010767602004118789" pbc="T T T"
Zr       2.02464221       1.96240904       4.04935386      -0.00000015      -0.00000070      -0.00000081
Cu      -0.00000001       1.96252009       2.02471579       0.00000023      -0.00000079       0.00000019
Pt       0.00000001      -0.00022395       4.04928359       0.00000000       0.00001607      -0.00002296
Pt      -0.00000000       3.92504178       4.04942425      -0.00000004      -0.00001460       0.00002355
