5
Lattice="4.738354146209438 -1.1345009614256637e-10 2.0571956176647804e-09 -1.1344901528735387e-10 4.738354145804207 -3.104889907500985e-09 2.0571949116523034e-09 -3.1048898208616075e-09 4.738354154331667" Properties=species:S:1:pos:R:3:forces:R:3 material_id=wbm-3-45540 energy=-31.096775982301374 free_energy=-31.096775982301374 stress="0.002239609965208801 -6.54786665115444e-11 -1.501590907305529e-10 -6.54786665115444e-11 0.0022395988300131786 1.3835029774505699e-09 -1.501590907305529e-10 1.3835029774505699e-09 0.0022396023566967956" pbc="T T T"
Tm       2.36917707       2.36917708       0.00000000       0.00000006       0.00000008      -0.00000000
Tm       2.36917708      -0.00000000       2.36917710       0.00000004       0.00000007       0.00000001
Tm       0.00000001       2.36917707       2.36917709      -0.00000004       0.00000003       0.00000002
Sn      -0.00000001       0.00000000       0.00000001       0.00000021      -0.00000013      -0.00000005
N        2.36917708       2.36917706       2.36917705      -0.00000024      -0.00000006       0.00000002
