10
Lattice="4.640300591104292 -1.0759315640420184e-08 -6.51407376591016e-09 -1.8463615654720776e-08 6.99630286994288 1.515806203852552e-08 -1.1186546824915974e-08 1.5158063350099227e-08 6.996302855705836" Properties=species:S:1:pos:R:3:forces:R:3 material_id=wbm-2-27765 energy=-56.86271537334268 free_energy=-56.86271537334268 stress="0.002031950617782704 -1.6628955909668988e-10 -2.4511957093128384e-09 -1.6628955909668988e-10 8.136275535868601e-06 1.792654872490243e-10 -2.4511957093128384e-09 1.792654872490243e-10 8.145872082039613e-06" pbc="T T T"
Ce       2.32015020       2.31167673       1.18647471       0.00000077      -0.01799402       0.01799423
Ce       2.32015026       5.80982820       2.31167675       0.00000043      -0.01799427      -0.01799455
Ce       2.32015027       4.68462606       5.80982821       0.00000054       0.01799462      -0.01799453
Ce       2.32015027       1.18647477       4.68462619       0.00000049       0.01799409       0.01799432
Mn      -0.00000005       3.49815145       3.49815143       0.00000014      -0.00000041      -0.00000018
Mn       0.00000006       0.00000001       0.00000000      -0.00000004       0.00000005      -0.00000052
Ga      -0.00000003       6.06390723       4.43054696      -0.00000074      -0.00236340       0.00236507
Ga      -0.00000001       4.43054712       0.93239561      -0.00000051       0.00236315       0.00236368
Ga      -0.00000004       2.56575578       6.06390725      -0.00000062      -0.00236353      -0.00236344
Ga      -0.00000000       0.93239566       2.56575577      -0.00000044       0.00236370      -0.00236401
