6
Lattice="3.914079206918069 5.176654305798847e-09 4.188233249180267e-09 5.176658366822429e-09 3.91407920731677 1.9696153363111774e-08 6.967758992474465e-09 3.360574241165477e-08 6.73596170416243" Properties=species:S:1:pos:R:3:forces:R:3 material_id=wbm-1-44704 energy=-41.79362679542285 free_energy=-41.79362679542285 stress="-0.0006686817503141715 -4.0728216446353546e-09 7.535840942614748e-09 -4.0728216446353546e-09 -0.0006687010310340016 1.3907715692348832e-08 7.535840942614748e-09 1.3907715692348832e-08 0.0021616465871088873" pbc="T T T"
Tb       2.93555941       2.93555944       5.60770939       0.00000018      -0.00000022       0.03687299
Tb       0.97851976       0.97851980       1.12825237       0.00000062      -0.00000110      -0.03687269
S        0.97851961       0.97851981       3.90457966      -0.00000031      -0.00000010      -0.00025872
S        2.93555963       2.93555950       2.83138196       0.00000039      -0.00000000       0.00026035
O        2.93555940       0.97851983       0.00000001      -0.00000086      -0.00000034      -0.00000076
O        0.97851984       2.93555937       0.00000005      -0.00000012       0.00000180      -0.00000110
