6
Lattice="4.235482028241139 -0.00011586176204367365 2.445736226310674 1.4120596679355644 3.9933012905059146 2.445984821186232 -8.153952345980186e-05 -0.00010429486388404138 4.8909916239722575" Properties=species:S:1:pos:R:3:forces:R:3 material_id=wbm-5-14487 energy=-24.928700178594294 free_energy=-24.928700178594294 stress="0.00029169163618493796 1.7854397280263637e-05 1.9350223644681776e-05 1.7854397280263637e-05 0.0003096000284008884 2.627765645139632e-05 1.9350223644681776e-05 2.627765645139632e-05 0.00033098516449668353" pbc="T T T"
Cd       0.00004065       0.00004765       0.00007213      -0.00006460       0.00002512      -0.00015292
Cd       1.41183439       0.99831485       2.44565939       0.00013201       0.00003434       0.00011862
Ni       1.40992408       2.49646754       4.89131847       0.03800328      -0.01338952       0.00009089
Ni       2.82368381       0.49695693       4.89122211      -0.00007232       0.04028146       0.00002102
Ni       3.53065397       2.49645462       6.11597539      -0.01898806      -0.01347102      -0.03296554
Ni       3.53073318       2.49651442       3.66699789      -0.01901032      -0.01348034       0.03288795
