5
Lattice="3.0096572067658327 -7.978296005897998e-09 4.230687042845993e-09 -9.186893256002644e-09 3.982246266557318 -0.9353661164677399 7.912541818731094e-09 -0.44090971181863625 7.066917864945541" Properties=species:S:1:pos:R:3:forces:R:3 material_id=wbm-5-12877 energy=-44.62349194817398 free_energy=-44.62349194817398 stress="-0.0003513946404150078 4.985141726662408e-09 4.544696680532389e-09 4.985141726662408e-09 -0.0011026496811454504 0.0008278107025043367 4.544696680532389e-09 0.0008278107025043367 0.002200139186117714" pbc="T T T"
Ta       1.50482860       2.43438146       1.41864667      -0.00000014       0.01011946       0.04406508
Ta       1.50482861       1.10695505       4.71290505      -0.00000003      -0.01011901      -0.04406371
Mn       0.00000001       0.61461330       2.61593832       0.00000003      -0.00307006      -0.01209295
Mn       0.00000002       2.92672325       3.51561346      -0.00000004       0.00306955       0.01208985
In      -0.00000003       0.00000003      -0.00000005       0.00000014       0.00000010       0.00000167
