8
Lattice="4.55824928227714 2.9628494422613715e-09 1.865734683228129e-09 2.962854178149991e-09 4.558249283775505 7.304814462220681e-09 1.8657349114001683e-09 7.304822938638212e-09 4.558249274879291" Properties=species:S:1:pos:R:3:forces:R:3 material_id=wbm-1-31414 energy=-55.00449264629762 free_energy=-55.00449264629762 stress="-0.0002703044236590203 -2.7520382038514264e-08 -6.282671034235823e-08 -2.7520382038514264e-08 -0.0002702879553235582 -3.505307756975803e-08 -6.282671034235823e-08 -3.505307756975803e-08 -0.0002703121816939777" pbc="T T T"
Al       2.27912459       2.27912473      -0.00000001       0.00000312      -0.00000154      -0.00000169
Al       2.27912461      -0.00000003       2.27912473       0.00000326      -0.00000240      -0.00000294
Al       0.00000000       2.27912472       2.27912469      -0.00000397      -0.00000150      -0.00000242
In      -0.00000001      -0.00000000      -0.00000005      -0.00000441      -0.00000214       0.00000338
N        3.33189881       3.33189871       1.22635052      -0.01322887      -0.01322800       0.01323169
N        3.33189880       1.22635048       3.33189876      -0.01323105       0.01323419      -0.01323015
N        1.22635052       3.33189877       3.33189876       0.01323227      -0.01323038      -0.01323040
N        1.22635052       1.22635053       1.22635049       0.01323011       0.01323196       0.01323278
