9
Lattice="3.998693939611458 1.0295785658496053e-08 3.2210748907860737e-10 2.242968098349025e-08 6.3630398160822645 -3.6737027833353952 -3.97270277255543e-10 1.025928463242761e-08 7.347405580020287" Properties=species:S:1:pos:R:3:forces:R:3 material_id=wbm-2-44635 energy=-38.14223285997454 free_energy=-38.14223285997454 stress="0.0018245956988341043 3.78330765607071e-09 -1.3647708932978678e-09 3.78330765607071e-09 -0.0012582052051013292 -1.8678414527212922e-10 -1.3647708932978678e-09 -1.8678414527212922e-10 -0.001258166717315069" pbc="T T T"
Sc       1.99934699       3.91024776      -2.25758268      -0.00000007      -0.00017186       0.00010018
Sc       1.99934691       0.00000010       4.51516521       0.00000014      -0.00000064      -0.00019869
Sc       1.99934707       2.45279222       1.41612028      -0.00000034       0.00017108       0.00009832
Zn       1.99934694       0.00000000      -0.00000005      -0.00000010       0.00000004       0.00000046
Zn      -0.00000004       4.24202648       0.00000007      -0.00000001       0.00000197      -0.00000043
Zn      -0.00000005       2.12101329       3.67370260       0.00000007      -0.00000212       0.00000204
Sn       0.00000003       0.00000012       2.05524100       0.00000028      -0.00000224       0.03351149
Sn       0.00000011       4.58314870       2.64608240       0.00000003      -0.02901802      -0.01675729
Sn       0.00000001       1.77989083      -1.02762059      -0.00000000       0.02902181      -0.01675621
