6
Lattice="3.3593255692808675 5.59790850723782e-10 2.1716937505019203e-09 5.597930135006828e-10 3.3593255729514095 -6.162367254119966e-09 6.703910358638161e-09 -1.9026990467668095e-08 10.355935838181116" Properties=species:S:1:pos:R:3:forces:R:3 material_id=wbm-3-48152 energy=-28.74589216729526 free_energy=-28.74589216729526 stress="-0.0010061938485213 5.493649905424322e-10 -3.936001909086769e-09 5.493649905424322e-10 -0.001006194179069588 -3.73681393882802e-09 -3.936001909086769e-09 -3.73681393882802e-09 0.0007833161131778176" pbc="T T T"
Tm       0.00000000      -0.00000001       0.00000005       0.00000002       0.00000027      -0.00000057
Tm      -0.00000000      -0.00000001       7.07847119       0.00000019      -0.00000002      -0.03770995
Tm       0.00000001      -0.00000002       3.27746465      -0.00000002      -0.00000009       0.03771049
Zn       1.67966280       1.67966277       5.17796789      -0.00000016       0.00000019      -0.00000014
Ni       1.67966279       1.67966278       8.66370966       0.00000001      -0.00000013       0.04340493
Ni       1.67966278       1.67966280       1.69222615      -0.00000004      -0.00000021      -0.04340471
