11
Lattice="7.304367490689059 6.473901570721559e-06 5.7310727214910935e-05 -2.372901210282382e-05 6.8677386592274905 -3.965104522676284 -1.3424234728380608e-05 -1.0877834748754949e-05 7.930188440106252" Properties=species:S:1:pos:R:3:forces:R:3 material_id=wbm-2-45218 energy=-54.273533252099895 free_energy=-54.273533252099895 stress="-0.0005083525639216278 -8.120138616186641e-09 3.789195152618523e-09 -8.120138616186641e-09 0.0006024244399264787 -2.1689252458568302e-07 3.789195152618523e-09 -2.1689252458568302e-07 0.0006026730251739135" pbc="T T T"
Hf       3.68153111       4.98107453       3.96511661       0.03026049      -0.01661901       0.00000099
Hf       3.68155306       0.94332846       1.63392326       0.03025935       0.00830975       0.01439204
Hf       3.68155118       0.94332671       6.29631407       0.03025201       0.00830735      -0.01438934
Se       5.52392269       0.00000400       7.93021449      -0.01283050      -0.00000474       0.00000810
I        1.80886771       2.33952688       0.00001844      -0.01154917       0.00109643       0.00000284
I        5.26989733       3.42984463       1.98955299      -0.02142827       0.00254716      -0.00441311
I        1.80884946       5.69796282       1.93901201      -0.01154982      -0.00055056      -0.00094893
I        5.26987645       6.87578520       0.00001699      -0.02143025      -0.00508059       0.00000189
I        2.15283394       2.28923679       3.96511478       0.02097002      -0.00000092       0.00000139
I        1.80883125       5.69797455      -1.93899649      -0.01152381      -0.00054461       0.00094435
I        5.26989515       3.42986247      -1.98948702      -0.02142999       0.00253980       0.00439974
