12
Lattice="5.746956928608559 4.8139906909738296e-08 -1.0532793193857125e-05 4.8187406221477646e-08 5.756165204159239 1.2804270572501776e-07 3.036510158894152e-06 1.2848278406543336e-07 5.806222153185353" Properties=species:S:1:pos:R:3:forces:R:3 material_id=wbm-2-39104 energy=-54.94837147725401 free_energy=-54.94837147725401 stress="0.001573314236397644 2.2941850716802813e-08 -2.0971046347570403e-07 2.2941850716802813e-08 0.0012589115459570842 -1.4840806264624013e-08 -2.0971046347570403e-07 -1.4840806264624013e-08 -0.0013001352159533685" pbc="T T T"
Cu       2.89495499       2.91911717       1.52211866       0.00319347       0.00304643      -0.02281727
Cu       2.89495548       0.04103490       4.28409332       0.00319532       0.00304610       0.02281512
Cu       0.02147654       5.71512964       1.52212388       0.00319336      -0.00304769      -0.02281652
Cu       0.02147720       2.83704718       4.28409857       0.00319497      -0.00304629       0.02281537
P        2.29403024       5.17505184       2.07933516       0.00360814       0.00324030      -0.00167299
P        5.16750897       3.45919497       2.07932970       0.00360560      -0.00323713      -0.00167077
P        2.29403056       2.29696884       3.72687829       0.00360299       0.00323984       0.00167106
P        5.16750896       0.58111344       3.72687289       0.00360204      -0.00324106       0.00167092
S        3.47167930       0.59998985       0.85525818      -0.00680207      -0.00879510       0.03241769
S        0.59820088       2.27809150       0.85526350      -0.00679916       0.00879426       0.03241506
S        0.59820234       5.15617373       4.95095687      -0.00679718       0.00879674      -0.03241390
S        3.47168093       3.47807345       4.95095170      -0.00679768      -0.00879635      -0.03241371
