7
Lattice="2.8426329079967663 4.640872823663902e-05 -0.00014479325806529187 -1.4215608912199316 5.03152122930883 -3.4488180488619675 0.0002967516204087469 -0.23461331670973154 6.137337335879441" Properties=species:S:1:pos:R:3:forces:R:3 material_id=wbm-3-69260 energy=-55.89007118395672 free_energy=-55.89007118395672 stress="0.0016046306819509145 -4.7472372433244153e-08 -6.497584028147026e-07 -4.7472372433244153e-08 -0.00350790779321974 0.0010624150645848628 -6.497584028147026e-07 0.0010624150645848628 0.0016925253072399326" pbc="T T T"
V       -0.00001229       3.58979922       0.81541168      -0.00000582      -0.02924022      -0.01931149
V        1.42138106       1.20715524       1.87296290       0.00000580       0.02923892       0.01930921
Fe       1.42126317       1.90866999      -0.58252496      -0.00000257       0.02100409      -0.03367030
Fe       0.00000004      -0.00000015       0.00000004       0.00000020       0.00000136      -0.00000081
Fe       0.00010568       2.88828445       3.27089950       0.00000107      -0.02100575       0.03367021
Si       1.42118606       4.11549304      -1.28400431       0.00001879       0.00715847       0.03630128
Si       0.00018267       0.68146127       3.97237864      -0.00001747      -0.00715680      -0.03629811
