5
Lattice="3.373580951048697 -1.4566298781100664e-08 -1.1253350278856035e-08 -1.3741020696014538e-08 3.720474588929777 -1.164141137050736 -2.4511457368718415e-08 0.08814567691260389 6.811303707723282" Properties=species:S:1:pos:R:3:forces:R:3 material_id=wbm-5-11711 energy=-19.50283528660367 free_energy=-19.50283528660367 stress="-0.0022836288407020685 1.4001972736525957e-09 -4.615012172046782e-10 1.4001972736525957e-09 -0.0015870093380851383 0.0004783269911356238 -4.615012172046782e-10 0.0004783269911356238 -0.00014331576844691326" pbc="T T T"
Mg       1.68679048       2.42720849       1.23004468      -0.00000001       0.00042940       0.00252288
Mg       1.68679043       1.38141187       4.41711773       0.00000004      -0.00042962      -0.00252142
Ni      -0.00000000       0.75526849       2.41429542       0.00000003       0.00688563       0.02215068
Ni       0.00000001       3.05335164       3.23286716      -0.00000003      -0.00688502      -0.02215017
Sn      -0.00000005       0.00000004       0.00000014      -0.00000005      -0.00000041      -0.00000196
