4
Lattice="4.491823534834406 7.504569719819163e-09 2.593355531955539 1.4972745142122184 4.234931839633573 2.5933555319336725 3.89549892212109e-09 5.5610929264040774e-09 5.186711052537052" Properties=species:S:1:pos:R:3:forces:R:3 material_id=wbm-3-42131 energy=-19.49687050057348 free_energy=-19.49687050057348 stress="-0.0007275054853233553 -7.295726644998679e-09 -3.478431385399429e-09 -7.295726644998679e-09 -0.0007275037387299292 -3.22087208087188e-09 -3.478431385399429e-09 -3.22087208087188e-09 -0.0007275229356703242" pbc="T T T"
Mn       4.49182353       3.17619889       7.78006656      -0.00000026      -0.00000004      -0.00000022
Ge       1.49727452       1.05873297       2.59335552       0.00000030       0.00000007       0.00000005
Pb       2.99454903       2.11746592       5.18671107       0.00000014       0.00000001       0.00000035
Pb       0.00000000       0.00000001       0.00000002      -0.00000023      -0.00000004      -0.00000014
