6
Lattice="3.8703200366165906 0.0006242579168274463 -0.9778248790186994 -0.24768391110998672 3.86238602309955 -0.9778256980488568 -0.021710692586388206 -0.023151121831656674 8.073092862013514" Properties=species:S:1:pos:R:3:forces:R:3 material_id=wbm-3-71384 energy=-44.160583759094195 free_energy=-44.160583759094195 stress="-0.001025272107002498 7.629403880773823e-05 0.000385444519152242 7.629403880773823e-05 -0.0010155054256863164 0.0004109807089837504 0.000385444519152242 0.0004109807089837504 0.0007938323003296246" pbc="T T T"
Lu       2.42554158       2.58648480       1.45462780      -0.00664409      -0.00708337      -0.02322005
Lu       1.17538383       1.25337435       4.66281445       0.00664423       0.00708379       0.02322001
Nb      -0.12384198       1.93119303      -0.48891292       0.00000064       0.00000031      -0.00000009
Nb       1.93516006       0.00031214      -0.48891245      -0.00000145      -0.00000006       0.00000106
Si       0.45363239       0.48373331       1.79554686      -0.01262635      -0.01346893      -0.04239849
Si       3.14729305       3.35612580       4.32189553       0.01262701       0.01346827       0.04239758
