4
Lattice="4.761723837568412 5.959725616043252e-09 2.7491826505801353 1.587241401624542 4.48939642278408 2.749182641529126 7.567767401831177e-09 1.5760683093339286e-11 5.498365290008604" Properties=species:S:1:pos:R:3:forces:R:3 material_id=wbm-2-8795 energy=-8.57804632544577 free_energy=-8.57804632544577 stress="0.0015946439079437438 -1.3196332577078902e-10 -2.0650141237484945e-09 -1.3196332577078902e-10 0.001594647226027966 9.693742977986508e-10 -2.0650141237484945e-09 9.693742977986508e-10 0.001594646076830703" pbc="T T T"
Ca       4.76173050       3.36704379       8.24754592      -0.00000486       0.00000304       0.00000218
Cd       0.00000096      -0.00000033       0.00000002       0.00000344      -0.00000130       0.00000007
Cd       3.17448357       2.24469787       5.49836531       0.00000350      -0.00000112       0.00000003
Bi       1.58724553       1.12234882       2.74918462      -0.00000208      -0.00000066      -0.00000232
