7
Lattice="3.572791264972623 1.5433898640619206e-09 -1.1197217135309467 -0.35092358460602596 3.5555154392191834 -1.1197217028390587 0.12008433010778757 0.13251995323765403 6.6430284833266695" Properties=species:S:1:pos:R:3:forces:R:3 material_id=wbm-1-40599 energy=-40.509259539679924 free_energy=-40.509259539679924 stress="-0.001933359147490139 0.00011634590193913724 0.0003363796229897455 0.00011634590193913724 -0.001910402427557924 0.0003712254516047611 0.0003363796229897455 0.0003712254516047611 -0.0009654661405097994" pbc="T T T"
Yb       2.08624758       2.30229363       0.39690219       0.01085519       0.01198020       0.03463762
Yb       1.25570446       1.38574176       4.00668280      -0.01085646      -0.01197972      -0.03463839
Cu       0.00000003       0.00000005       0.00000010       0.00000139      -0.00000078      -0.00000011
O        1.78639566      -0.00000002      -0.55986089      -0.00000109      -0.00000040       0.00000074
O        0.69004726       2.73289657       2.20179253       0.00000042      -0.00000000       0.00000012
O       -0.17546178       1.77775768      -0.55986084      -0.00000009       0.00000087      -0.00000015
O        2.65190469       0.95513879       2.20179249       0.00000078      -0.00000003       0.00000045
