10
Lattice="6.316323152864465 0.001069867965769751 -3.5486099854330178 -4.153524153635326 5.934223172909674 -0.14767964447399495 0.0007490148442930736 -0.0010697401112597965 7.2448999345475515" Properties=species:S:1:pos:R:3:forces:R:3 material_id=wbm-1-15569 energy=-43.0587563023658 free_energy=-43.0587563023658 stress="0.00042095966144871074 7.827295878767337e-05 9.36195752820808e-05 7.827295878767337e-05 0.00036384541537865553 -0.00013380352474906413 9.36195752820808e-05 -0.00013380352474906413 0.00031568400427493956" pbc="T T T"
Cs       0.04320524       4.45093554      -0.07384059      -0.00000104       0.00000159      -0.00000181
Cs      -2.07638757       2.96657669       3.54861013      -0.00000022      -0.00000005       0.00000038
Cs       2.12034275       1.48328778       3.62245088       0.00000096      -0.00000158       0.00000182
Ca       0.00000003       0.00000002       0.00000003      -0.00000003       0.00000007      -0.00000077
F        1.49588098       4.10509212      -2.55650630       0.01438363       0.03946986      -0.02458166
F        4.36914690      -0.00000037       2.55650544       0.04201025      -0.00000077       0.02458019
F        1.94792528       0.00000048       1.13978449      -0.04201052       0.00000103      -0.02458010
F        0.66691802       1.83020092      -1.13978334      -0.01438366      -0.03947001       0.02458173
F       -3.19684334       4.56740267       5.46351008      -0.01550446       0.02215068       0.02649733
F        5.36039131       1.36682067      -1.91489972       0.01550508      -0.02215052      -0.02649676
