6
Lattice="4.236627351821974 2.051100152931205e-08 -6.327221520760862e-09 1.7731766519757285e-08 4.679556509993124 2.701954714008701 -7.47366978069078e-09 -7.08626695207668e-05 5.403592368939921" Properties=species:S:1:pos:R:3:forces:R:3 material_id=wbm-4-20941 energy=-43.35789345327018 free_energy=-43.35789345327018 stress="-0.0017033447540223921 1.1058454224985432e-08 -4.727850942530079e-10 1.1058454224985432e-08 0.0009556822050935473 2.916469899175981e-06 -4.727850942530079e-10 2.916469899175981e-06 0.0009590602701635182" pbc="T T T"
Sm       0.00000003      -0.00000012       0.00000001       0.00000011       0.00000083      -0.00000033
Mn       2.11831373       2.33977838       1.35097744      -0.00000138      -0.00000039      -0.00000048
Mn       2.11831374      -0.00003556       2.70179617      -0.00000145       0.00000110       0.00000019
Mn       2.11831370       2.33974285       4.05277339      -0.00000113      -0.00000035       0.00000048
Pd      -0.00000003       3.11966201       5.40370631       0.00000175      -0.00000547      -0.00000718
Pd      -0.00000012       1.55982377       2.70184084       0.00000210       0.00000429       0.00000728
