4
Lattice="4.120370190662539 -1.5569653314831434e-06 2.3788942788777225 1.3734552591393865 3.8847181367606427 2.3788942843518135 2.392651633798702e-08 2.362296167018304e-08 4.757788516313508" Properties=species:S:1:pos:R:3:forces:R:3 material_id=wbm-1-18667 energy=-10.980656329238228 free_energy=-10.980656329238228 stress="0.0010148720749056836 1.216071394607381e-07 3.2640028187679737e-09 1.216071394607381e-07 0.00101516909467836 -1.19461908140035e-09 3.2640028187679737e-09 -1.19461908140035e-09 0.0010152096754791247" pbc="T T T"
Cd       1.37346206       0.97117715       2.37889427      -0.00000055       0.00000004       0.00000001
Ga       4.12037394       2.91353575       7.13668277       0.00000209      -0.00000069       0.00000006
Au       0.00000263      -0.00000096       0.00000005      -0.00000395       0.00000127       0.00000002
Au       2.74692156       1.94235521       4.75778852       0.00000239      -0.00000060      -0.00000008
