32
Lattice="5.444333368804961 0.0030595749927104492 8.667798736131135e-08 -2.675797872662482 7.583162788662553 5.120246297864574e-08 2.380410320171127e-07 1.8722238692851824e-07 15.261992109339324" Properties=species:S:1:pos:R:3:forces:R:3 material_id=wbm-1-31839 energy=-163.62023922729304 free_energy=-163.62023922729304 stress="-0.0021693735886130702 -0.00025164545588814776 -6.299617703062954e-08 -0.00025164545588814776 -0.0017398017567125882 1.8440186921083832e-07 -6.299617703062954e-08 1.8440186921083832e-07 -0.002517245938146089" pbc="T T T"
As       1.12068519       1.99903152       6.23992957       0.00458968      -0.00158186       0.01788694
As       0.26329043       1.79415147      13.87127415       0.01792320      -0.00390882      -0.00833150
As       1.64758014       5.58725346       9.02172852       0.01632738      -0.00325006       0.00733029
As       2.50493095       5.79215095       1.39108211       0.00617558      -0.00220407      -0.01896944
As       0.40194683       5.02023482       6.23466850       0.00218089       0.00291560       0.02264112
As      -1.69345553       6.35588631      13.86611431      -0.00383306       0.00882138      -0.01118286
As       2.36660877       2.56584303       9.02689572      -0.00374713       0.00821083       0.00965090
As       4.46201265       1.23017404       1.39634749       0.00215967       0.00355939      -0.02406732
N        0.46175659       5.86410757       7.76547906      -0.00213266       0.00342778      -0.02358445
N       -0.00587490       3.32670781       6.03714798      -0.01154717       0.00095581       0.02289615
N        1.39020833       0.46635965      13.66809999       0.00646054       0.00244646       0.02613457
N        2.77447015       4.25947919       9.22488632       0.00689765       0.00186482      -0.02601265
N        1.37839861       7.11981252       1.59384683      -0.01196727       0.00142692      -0.02277144
N       -1.75303489       5.51229703       0.13387763      -0.01745349      -0.01338766       0.02198501
N        2.30701558       1.72223802       7.49708381      -0.01634559      -0.01287558      -0.01954656
N        4.52183638       2.07406209      15.12747664      -0.00319066       0.00295280       0.02588868
F       -2.02466025       5.48728365       2.83041029      -0.00844143       0.01363181      -0.00116489
F        0.73310644       5.88900032      10.46145125       0.01035821      -0.01433754      -0.00457041
F        4.79317309       2.09894810      12.43153922       0.01027934      -0.01429663       0.00441095
F        0.05508843       0.63766389       6.16084790      -0.00193434      -0.00081500      -0.00316870
F        2.03540437       1.69723227       4.80058808      -0.00837792       0.01359871       0.00102783
F        1.43935716       4.43077624       1.47014855      -0.00202030      -0.00093628       0.00317130
F        2.71346812       6.94859219       9.10115261       0.00034298      -0.00173205       0.00246235
F        1.32920169       3.15548345      13.79183537       0.00024509      -0.00186919      -0.00245941
F        0.31934713       1.70444529       2.45102555       0.01249658      -0.02387393      -0.00598525
F        1.06485128       2.08863577      10.08210015      -0.00690994       0.02602371      -0.01172348
F        2.44911613       5.88174624      12.81088595      -0.00671807       0.02609083       0.01190256
F        1.70361590       5.49755788       5.17996789       0.01234917      -0.02392476       0.00612532
F        3.16235392       2.03355666       2.18870088       0.01352751       0.00119279       0.00497524
F        3.66627580       1.76259494       9.81971990      -0.01561353       0.00034220       0.00315830
F       -0.39378965       5.55264670      13.07326776      -0.01564456       0.00035544      -0.00314674
F       -0.89771298       5.82360847       5.44229600       0.01356355       0.00117580      -0.00496237
