7
Lattice="4.396644472810801 -1.9170056856532128e-08 1.2310810151151854 1.7355455462553664 5.24629951419895 2.268286814590121 0.09381946301866889 0.1293191777725549 8.131497066544663" Properties=species:S:1:pos:R:3:forces:R:3 material_id=wbm-2-49114 energy=-26.06401688235997 free_energy=-26.06401688235997 stress="-0.0009576355160362531 3.5552374178970375e-05 -0.0005209424378745556 3.5552374178970375e-05 9.282271206749359e-05 -0.0001269921790631453 -0.0005209424378745556 -0.0001269921790631453 0.0007569753751101535" pbc="T T T"
Sr       1.51719574       2.66493106       3.04809510      -0.00232729      -0.03893704       0.00831083
Sr       4.70881373       2.71068771       8.58276969       0.00232742       0.03893661      -0.00831046
Tl       2.19832228      -0.00000004       0.61554048       0.00000028       0.00000001       0.00000020
Tl       3.07366567       4.35728573       5.95592686      -0.00197355       0.00374119       0.00704632
Tl       3.15234381       1.01833293       5.67493807       0.00197341      -0.00374084      -0.00704679
Pt       2.29203489       4.89196231       8.74741940       0.00297130       0.03500319      -0.01061458
Pt       3.93397459       0.48365630       2.88344560      -0.00297161      -0.03500313       0.01061451
