4
Lattice="3.8395617918844414 3.0940665950435205e-09 2.216772040760127 1.279853928005207 3.619973599155792 2.2167720503557833 -1.670429450098721e-09 1.0571059073000042e-08 4.4335440844135245" Properties=species:S:1:pos:R:3:forces:R:3 material_id=wbm-1-55773 energy=-35.29210723858235 free_energy=-35.29210723858235 stress="0.00242406626134081 7.176796886845275e-09 -1.34771809585877e-09 7.176796886845275e-09 0.0024241382771485204 3.8253039125721134e-09 -1.34771809585877e-09 3.8253039125721134e-09 0.0024241163217372276" pbc="T T T"
Ti      -0.00000001       0.00000003      -0.00000005       0.00000023      -0.00000041       0.00000003
Ti       2.55970786       1.80998684       4.43354412       0.00000015      -0.00000033       0.00000000
Si       1.27985392       0.90499343       2.21677206      -0.00000052       0.00000046      -0.00000001
W        3.83956179       2.71498013       6.65031614       0.00000019       0.00000023       0.00000000
