12
Lattice="7.953888206719323 -2.6060450109099214e-09 -4.0415417546906015e-09 -3.976944106808112 6.888269238543091 2.964894473687298e-10 -4.258105502288826e-09 -2.0928881117645494e-09 8.372744678074366" Properties=species:S:1:pos:R:3:forces:R:3 material_id=wbm-1-10532 energy=-32.99766127539189 free_energy=-32.99766127539189 stress="0.0011923782768895116 -7.732054975935033e-09 -2.3040640883747206e-10 -7.732054975935033e-09 0.001192388175154083 -1.5014272145000222e-09 -2.3040640883747206e-10 -1.5014272145000222e-09 0.0008318688665331032" pbc="T T T"
As       0.00000004       4.59217945       2.09318620      -0.00000179       0.00000362       0.00000132
As       3.97694418       2.29608973       6.27955860      -0.00000059       0.00000430      -0.00000120
Cl      -1.89120555       5.68406751       2.09318618       0.04131847      -0.02385539      -0.00000002
Cl       3.97694409       4.47986579       6.27955850       0.00000018      -0.04771139       0.00000008
Cl       3.97694408       2.29608971       0.16136112       0.00000047       0.00000074      -0.02053028
Cl      -0.00000001       4.59217947       4.34773341      -0.00000030      -0.00000004      -0.02052898
Cl      -0.00000001       4.59217950       8.21138351      -0.00000030      -0.00000009       0.02052764
Cl       3.97694407       2.29608969       4.02501118       0.00000046       0.00000056       0.02053156
Cl       5.86814959       1.20420178       6.27955848      -0.04131485       0.02385317      -0.00000007
Cl      -0.00000001       2.40840350       2.09318620      -0.00000001       0.04770565      -0.00000008
Cl       1.89120550       5.68406748       2.09318618      -0.04131609      -0.02385394       0.00000001
Cl       2.08573858       1.20420176       6.27955846       0.04131437       0.02385270      -0.00000003
