5
Lattice="3.761984777766448 -0.002043829105800021 -1.1984243849416891 -0.37714076599453406 3.7430334050552005 -1.1984243624765254 0.09680770987839964 0.10699365636225376 6.3197512085883405" Properties=species:S:1:pos:R:3:forces:R:3 material_id=wbm-3-1256 energy=-24.059603928732155 free_energy=-24.059603928732155 stress="-0.0004267974397856741 -0.0005959936885077194 -0.0008542761361294729 -0.0005959936885077194 -0.0005462238471081461 -0.0009441548042926929 -0.0008542761361294729 -0.0009441548042926929 -0.0012736435336083444" pbc="T T T"
Lu       0.00000002       0.00000001       0.00000001      -0.00000020       0.00000001       0.00000001
Al       0.69555927       2.86974789       1.96145120      -0.00679867       0.00615231       0.00000046
Al       2.78609247       0.97823529       1.96145121       0.00679885      -0.00615204       0.00000059
Si       2.07495501       2.29327712      -0.14388191       0.00067301       0.00074377       0.03138540
Si       1.40669667       1.55470615       4.06678440      -0.00067300      -0.00074404      -0.03138646
