7
Lattice="4.427018705245321 1.0295947267951654e-05 9.571343439279276e-06 -2.213496973127148 6.433298556970078 -2.87768734409015 2.2724141674050724e-05 -0.11459523826157267 9.006112603939918" Properties=species:S:1:pos:R:3:forces:R:3 material_id=wbm-3-56604 energy=-26.756736488259676 free_energy=-26.756736488259676 stress="-0.001076771912557894 -1.1542792079289982e-06 -7.431296570650304e-07 -1.1542792079289982e-06 0.0002149808790698421 0.0006467862055675815 -7.431296570650304e-07 0.0006467862055675815 -0.0010528313773405695" pbc="T T T"
Cs       4.42657613       0.00001016       0.00000291      -0.00000031      -0.00000067      -0.00000287
Dy       2.21308245      -0.05729276       4.50306062       0.00001909      -0.00000081       0.00000326
Br       2.21309633       1.68449071       6.71961546       0.00000239      -0.00610163      -0.00606205
Br      -0.00036216       4.37742416       3.64064035       0.00013448       0.02859769      -0.01086826
Br      -0.00043093       4.63423043      -0.59118708      -0.00000124       0.00610492       0.00606053
Br       2.21299408       1.94128289       2.48778863      -0.00013121      -0.02859988       0.01086687
O        4.42659479      -0.05728757       4.50307607      -0.00002304       0.00000014       0.00000254
