7
Lattice="4.342433327257217 -1.549564235940249e-17 3.4647384534706407e-16 1.3110343446766066e-16 4.342433327257217 4.474499374362074e-15 1.704373998382317e-16 2.3555447166139892e-15 6.0136203696037445" Properties=species:S:1:pos:R:3:forces:R:3:energies:R:1 material_id=wbm-2-52291 energy=-50.3250823357571 stress="-0.002752169488589691 1.1092823420345262e-17 1.1697607106188588e-16 1.1092823420345262e-17 -0.0027521694885897876 8.990566854441384e-16 1.1697607106188588e-16 8.990566854441384e-16 0.0020302564460699195" free_energy=-50.3250823357571 pbc="T T T"
Zn       2.17121666       2.17121666       0.00000000       0.00000000       0.00000000       0.00000000      -2.59387202
Sb      -0.00000000      -0.00000000       3.00681018      -0.00000000      -0.00000000      -0.00000000      -5.93472998
Ru      -0.00000000       2.17121666       1.45404865      -0.00000000       0.00000000       0.01267030      -8.42025464
Ru      -0.00000000       2.17121666       4.55957172      -0.00000000       0.00000000      -0.01267030      -8.42025464
Ru       2.17121666      -0.00000000       1.45404865       0.00000000      -0.00000000       0.01267030      -8.42025464
Ru       2.17121666      -0.00000000       4.55957172       0.00000000       0.00000000      -0.01267030      -8.42025464
Ru      -0.00000000      -0.00000000       0.00000000      -0.00000000      -0.00000000       0.00000000      -8.11546178
