6
Lattice="3.3625205674982235 3.795863916641164e-17 2.1157080282088663e-16 5.934140546381849e-16 3.362520567498228 3.93556412379111e-15 -6.668216046286735e-17 9.351654570085474e-15 10.355367550022452" Properties=species:S:1:pos:R:3:forces:R:3:energies:R:1 material_id=wbm-3-48152 energy=-28.817849086211826 stress="-0.001389455860470969 7.58175812797207e-17 4.359568029440918e-17 7.58175812797207e-17 -0.0013894558604703815 3.1192498062858896e-16 4.359568029440918e-17 3.1192498062858896e-16 0.0015376104283746786" free_energy=-28.817849086211826 pbc="T T T"
Tm      -0.00000000      -0.00000000      -0.00000000       0.00000000      -0.00000000      -0.00000000      -5.07053806
Tm      -0.00000000       0.00000000       7.07121010      -0.00000000      -0.00000000      -0.02138074      -4.98172392
Tm      -0.00000000       0.00000000       3.28415745      -0.00000000       0.00000000       0.02138074      -4.98172392
Zn       1.68126028       1.68126028       5.17768378       0.00000000       0.00000000       0.00000000      -1.62032133
Ni       1.68126028       1.68126028       8.64943492      -0.00000000      -0.00000000       0.00479966      -6.08177093
Ni       1.68126028       1.68126028       1.70593263       0.00000000       0.00000000      -0.00479966      -6.08177093
