7
Lattice="3.5286162598754167 -4.1631484280837115e-17 2.2518267491037584e-16 4.027122315681082e-18 3.5286162598753927 -2.260878707537871e-16 -1.0014399652333725e-16 -5.954555237700933e-16 7.950209815427891" Properties=species:S:1:pos:R:3:forces:R:3:energies:R:1 material_id=wbm-3-25526 energy=-51.36609595375896 stress="0.0028779392930696215 8.090322435502954e-18 2.5318670838131724e-17 8.090322435502954e-18 0.002877939293069039 -6.640795632204186e-17 2.5318670838131724e-17 -6.640795632204186e-17 -0.00021712420254306768" free_energy=-51.36609595375896 pbc="T T T"
Fe       0.00000000       1.76430813       1.76346079      -0.00000000       0.00000000       0.03339481      -7.99953532
Fe       0.00000000       1.76430813       6.18674903      -0.00000000       0.00000000      -0.03339481      -7.99953532
Fe       1.76430813       0.00000000       1.76346079       0.00000000      -0.00000000       0.03339481      -7.99953532
Fe       1.76430813       0.00000000       6.18674903       0.00000000      -0.00000000      -0.03339481      -7.99953532
Fe       0.00000000       0.00000000       0.00000000       0.00000000       0.00000000      -0.00000000      -8.35279325
Ni       1.76430813       1.76430813       0.00000000      -0.00000000      -0.00000000      -0.00000000      -6.15599350
Sb       0.00000000       0.00000000       3.97510491      -0.00000000      -0.00000000       0.00000000      -4.85916790
