6
Lattice="3.7805450755542904 -6.309731088408949e-18 2.2663166505832127e-16 6.567175657069875e-16 4.834723621070378 -2.791328978781427 -5.644354631185415e-17 8.577265933192425e-11 5.582657966248596" Properties=species:S:1:pos:R:3:forces:R:3:energies:R:1 material_id=wbm-2-45767 energy=-38.86542067121462 stress="-0.0015941002910391036 2.3021420925460265e-17 -8.786656692321235e-18 2.3021420925460265e-17 0.002743410056869559 7.979673057674806e-11 -8.786656692321235e-18 7.979673057674806e-11 0.0027434099834752284" free_energy=-38.86542067121462 pbc="T T T"
Lu       0.00000000       0.00000000       0.00000000       0.00000000       0.00000001       0.00000002      -6.08330679
Si      -0.00000000       1.61157454       2.79132898      -0.00000000      -0.00000000      -0.00000000      -6.00498277
Si      -0.00000000       3.22314908       0.00000000       0.00000000      -0.00000000      -0.00000000      -6.00498277
Pt       1.89027254      -0.00000000       2.79132898       0.00000000       0.00000000      -0.00000001      -6.92404945
Pt       1.89027254       2.41736181      -1.39566449       0.00000000      -0.00000001      -0.00000001      -6.92404945
Pt       1.89027254       2.41736181       1.39566449       0.00000000      -0.00000000       0.00000000      -6.92404945
