5
Lattice="3.744312033884619 -0.004928648814615159 -1.2168925671896174 -0.3782490732845202 3.7251610660977024 -1.2168925802772015 0.08323476379987677 0.09199254106869717 6.368852885319877" Properties=species:S:1:pos:R:3:forces:R:3:energies:R:1 material_id=wbm-3-1256 energy=-24.25587042316274 stress="0.002490579146315561 0.00030986395684749247 -0.0004695299997677479 0.00030986395684749247 0.0025526822556054653 -0.0005189326088953333 -0.0004695299997677479 -0.0005189326088953333 -0.0010880336458757992" free_energy=-24.25587042316274 pbc="T T T"
Lu      -0.00000000       0.00000000      -0.00000000      -0.00000000       0.00000000      -0.00000000      -4.80272437
Al       0.69616668       2.83668228       1.96753389       0.00245795      -0.00222395      -0.00000000      -3.71975771
Al       2.75313104       0.97554268       1.96753385      -0.00245795       0.00222395       0.00000000      -3.71975771
Si       2.05694290       2.27336975      -0.20537200      -0.01285357      -0.01420600      -0.00340704      -6.00681532
Si       1.39235482       1.53885521       4.14043973       0.01285357       0.01420600       0.00340704      -6.00681532
