12
Lattice="3.737207306971445 1.0463984810438952e-15 -0.9860737798055781 -5.052473140072728e-17 6.378998693319932 -1.5105112469765247e-14 0.025199197271923508 -8.380398885802143e-15 7.678661394048648" Properties=species:S:1:pos:R:3:forces:R:3:energies:R:1 material_id=wbm-4-12109 energy=-88.99124640678298 stress="0.0008688922585736256 1.5263085978474354e-16 -0.0005198180687751257 1.5263085978474354e-16 -0.0029311119127747535 -1.8541879541386696e-16 -0.0005198180687751257 -1.8541879541386696e-16 -0.0008751538097627414" free_energy=-88.99124640678298 pbc="T T T"
La       0.42507961       4.78424902       1.61370661      -0.00232006      -0.00000000      -0.00926143      -6.38490707
La       3.33732689       1.59474967       5.07888100       0.00232006       0.00000000       0.00926143      -6.38490707
Fe       1.86860365       3.18949935      -0.49303689       0.00000000       0.00000000       0.00000000      -7.59165804
Fe       1.86860365       0.00000000      -0.49303689       0.00000000      -0.00000000       0.00000000      -7.59165804
Fe       2.52637498       0.44490353       2.00226578       0.00043131      -0.01733342       0.00168382      -7.75204058
Fe       1.23603152       5.93409517       4.69032183      -0.00043131       0.01733342      -0.00168382      -7.75204058
Fe       1.23603152       3.63440287       4.69032183      -0.00043131      -0.01733342      -0.00168382      -7.75204058
Fe       2.52637498       2.74459582       2.00226578       0.00043131       0.01733342       0.00168382      -7.75204058
Fe       0.29963136       1.59474967       1.13749462      -0.00001242      -0.00000000      -0.00038423      -7.86105519
Fe       3.46277514       4.78424902       5.55509299       0.00001242       0.00000000       0.00038423      -7.86105519
Co       0.89526914       1.59474967       3.39561616       0.00716278       0.00000000       0.02751869      -7.15392174
Co       2.86713737       4.78424902       3.29697145      -0.00716278      -0.00000000      -0.02751869      -7.15392174
