9
Lattice="4.374045859327693 -3.1741016180665653e-16 2.762104568318468e-11 -1.6019217372625883e-11 6.499630658669861 -3.752563505657503 3.203946251380922e-11 -2.082007259434491e-09 7.505127025298738" Properties=species:S:1:pos:R:3:forces:R:3:energies:R:1 material_id=wbm-4-13248 energy=-33.543334206845024 stress="-0.0006354628517570414 3.764909066255063e-17 2.214931634541785e-12 3.764909066255063e-17 -0.0019899383906355713 -4.437600756736872e-12 2.214931634541785e-12 -4.437600756736872e-12 -0.0019899383774586907" free_energy=-33.543334206845024 pbc="T T T"
Sr       0.00000000       0.00000000       4.39136263      -0.00000000      -0.00000000      -0.00497989      -3.19119560
Sr       0.00000000       3.80303159      -2.19568131      -0.00000000      -0.00431271       0.00248994      -3.19119560
Sr       0.00000000       2.69659907       1.55688220      -0.00000000       0.00431271       0.00248994      -3.19119560
Ga       2.18702293       5.04051649       2.91014356       0.00000000       0.01286038       0.00742494      -3.18063311
Ga       2.18702293       1.45911417      -0.84241996       0.00000000      -0.01286038       0.00742494      -3.18063311
Ga       2.18702293       0.00000000       1.68483992       0.00000000      -0.00000000      -0.01484989      -3.18063311
Ge       2.18702293       2.16654355       3.75256351       0.00000000       0.00000000       0.00000000      -4.45410535
Ge       2.18702293       4.33308711       0.00000000       0.00000000      -0.00000000       0.00000000      -4.45410535
Pd       0.00000000       0.00000000      -0.00000000      -0.00000000      -0.00000000      -0.00000000      -5.51963737
