32
Lattice="5.3665477502763235 -0.053686613234306915 -3.1473726657318584e-11 -2.71599030141079 7.521008762404383 -2.3916758714837733e-11 -8.633042330239944e-11 -7.850576423501307e-11 14.835787407701634" Properties=species:S:1:pos:R:3:forces:R:3:energies:R:1 material_id=wbm-1-31839 energy=-163.45114670644026 stress="0.0008329627294132579 0.0020962217991901777 7.770750121431947e-12 0.0020962217991901777 -0.001231216708903482 1.6856622948871148e-11 7.770750121431947e-12 1.6856622948871148e-11 0.00139023465671822" free_energy=-163.45114670644026 pbc="T T T"
As       1.13928306       1.92051696       6.10147476      -0.00776086       0.00248869       0.00960148      -5.36801056
As       0.18599567       1.81314412      13.51936847       0.00776086      -0.00248870       0.00960147      -5.36801056
As       1.51127439       5.54680519       8.73431264       0.00776085      -0.00248869      -0.00960148      -5.36801056
As       2.46456179       5.65417804       1.31641894      -0.00776086       0.00248870      -0.00960148      -5.36801056
As       0.19418513       4.96614339       5.94733094      -0.01968324      -0.01122080       0.00384355      -5.38651780
As      -1.58489671       6.28852645      13.36522465       0.01968324       0.01122081       0.00384354      -5.38651781
As       2.45637232       2.50117876       8.88845647       0.01968324       0.01122081      -0.00384355      -5.38651780
As       4.23545416       1.17879570       1.47056276      -0.01968325      -0.01122082      -0.00384354      -5.38651780
N        0.61178848       5.99808121       7.29656671       0.00182077       0.00076542      -0.01338483      -5.72281699
N        0.13548872       3.26289213       5.68246272      -0.02235321      -0.02823115       0.02942785      -5.75843414
N        1.18979000       0.47076895      13.10035642       0.02235320       0.02823115       0.02942785      -5.75843414
N        2.51506873       4.20443002       9.15332468       0.02235322       0.02823113      -0.02942785      -5.75843414
N        1.46076745       6.99655320       1.73543098      -0.02235321      -0.02823114      -0.02942785      -5.75843414
N       -2.00250005       5.25658863      -0.12132699      -0.00182077      -0.00076543      -0.01338483      -5.72281699
N        2.03876897       1.46924094       7.53922070      -0.00182077      -0.00076542       0.01338483      -5.72281699
N        4.65305750       2.21073352      14.95711440       0.00182077       0.00076543       0.01338483      -5.72281699
F       -1.73660485       5.51724637       2.58438443       0.00108517       0.02520928      -0.00985784      -4.64208315
F        0.34589328       5.73742347      10.00227813      -0.00108518      -0.02520928      -0.00985784      -4.64208315
F        4.38716230       1.95007579      12.25140298      -0.00108518      -0.02520928       0.00985784      -4.64208315
F        0.05538749       0.59782406       5.86053913       0.01658651      -0.01654812      -0.00410662      -4.65556550
F        2.30466417       1.72989868       4.83350928       0.00108518       0.02520928       0.00985784      -4.64208315
F        1.38066622       4.33148513       1.55735457       0.01658650      -0.01654813       0.00410662      -4.65556550
F        2.59516996       6.86949809       8.97524828      -0.01658650       0.01654813       0.00410662      -4.65556550
F        1.26989124       3.13583702      13.27843284      -0.01658651       0.01654812      -0.00410662      -4.65556550
F       -0.31188556       1.94644230       2.82067552      -0.03760255      -0.02845645       0.01451581      -4.64852835
F        1.63716428       1.78721878      10.23856922       0.03760255       0.02845645       0.01451581      -4.64852835
F        2.96244301       5.52087985      12.01511189       0.03760255       0.02845645      -0.01451581      -4.64852835
F        1.01339316       5.68010338       4.59721818      -0.03760255      -0.02845645      -0.01451581      -4.64852835
F        2.56691572       1.57695902       1.73947221      -0.02289287      -0.02079947      -0.01893445      -4.68083019
F        4.12491075       2.10301543       9.15736592       0.02289287       0.02079947      -0.01893445      -4.68083019
F        0.08364173       5.89036313      13.09631519       0.02289287       0.02079947       0.01893445      -4.68083019
F       -1.47435331       5.36430671       5.67842149      -0.02289287      -0.02079947       0.01893445      -4.68083019
