10
Lattice="6.226495584709468 1.2909335319472026e-10 3.5729782941633306 2.837510001027353 6.226774748382301 2.267007080262844 0.0018732013324306322 0.009578064738855361 7.208565227024807" Properties=species:S:1:pos:R:3:forces:R:3:energies:R:1 material_id=wbm-1-49436 energy=-40.24957414607773 stress="0.0008237477122425447 0.0005317392881599105 0.001030955768894115 0.0005317392881599105 -0.0007860487049120227 -0.000926642133074056 0.001030955768894115 -0.000926642133074056 -0.0003812622229525365" free_energy=-40.24957414607773 pbc="T T T"
Tl       2.12987034       4.67525909       3.50018423       0.01146772       0.02514322      -0.01998436      -3.47745901
Tl       0.70951285       1.56109373       5.97538808      -0.01146771      -0.02514322       0.01998436      -3.47745901
As       5.08945522       2.09351922       5.55445599      -0.01750271       0.03222601       0.03050133      -3.58453992
As       3.97642357       4.14283359       7.49409461       0.01750271      -0.03222600      -0.03050132      -3.58453992
S        0.84561537       1.34268607       2.17453708       0.01215801      -0.03267434      -0.03413236      -4.19523400
S        5.14348841       4.89366674       9.10845372      -0.02333441       0.03267433       0.02771895      -4.19523400
S        5.11443406       4.39311639       5.51092630      -0.00824224      -0.01807130       0.01436345      -4.67232015
S        3.95144472       1.84323642       7.53762430       0.00824224       0.01807130      -0.01436345      -4.67232015
S        8.22026343       4.89366674      10.87401352      -0.01215802       0.03267433       0.03413236      -4.19523400
S        3.92239037       1.34268607       3.94009689       0.02333441      -0.03267434      -0.02771896      -4.19523400
