12
Lattice="4.761464444560975 -6.737514389233797e-07 7.99340290598297e-06 1.131526339581422e-06 6.830687162039428 0.00017147192279305627 -7.718605933081862e-06 -0.00017138085155842786 8.248237982308428" Properties=species:S:1:pos:R:3:forces:R:3:energies:R:1 material_id=wbm-3-60173 energy=-59.0719162672685 stress="-0.0009376835058158361 3.7870722435267105e-09 1.1383203385645184e-07 3.7870722435267105e-09 0.0007881322172120685 6.425245652771236e-07 1.1383203385645184e-07 6.425245652771236e-07 -0.0009114360434866657" free_energy=-59.0719162672685 pbc="T T T"
Tb       3.57109838       3.41601899       2.05924089       0.00000326       0.00026232      -0.00381634      -5.62892427
Tb       1.19036959       6.82991210       6.18340933      -0.00000327      -0.00073110      -0.00368359      -5.62892581
Tb       3.57109779       0.00060162       2.06501345       0.00000327       0.00073132       0.00368484      -5.62892580
Tb       1.19036901       3.41449473       6.18918197      -0.00000325      -0.00026208       0.00381739      -5.62892436
In       1.19036512       1.71170851       3.43701887       0.00000120       0.00326267      -0.00073512      -3.23453148
In       1.19036976       5.12711256       0.68730168      -0.00000663       0.00325758       0.00039370      -3.23452491
In       3.57109762       1.70340079       7.56112171       0.00000663      -0.00325757      -0.00039752      -3.23452488
In       3.57110226       5.11880526       4.81140434      -0.00000121      -0.00326325       0.00073244      -3.23453145
Pd       1.19037211       1.70619951       0.68765451      -0.00000611      -0.00163843       0.00033925      -5.90451059
Pd       3.57109527       5.12431500       7.56076818       0.00000611       0.00163861      -0.00033713      -5.90451060
Pd       3.57109597       1.70902144       4.81179747      -0.00000090       0.00164559       0.00022631      -5.90454107
Pd       1.19037141       5.12149332       3.43662527       0.00000090      -0.00164565      -0.00022423      -5.90454106
