7
Lattice="2.6719975287492392 3.2922916883391274e-05 -0.00011443921314330119 -1.3362676847205806 5.165380210326428 -3.4321490209670933 0.000362667413550171 -0.12502812929070664 6.172049501788321" Properties=species:S:1:pos:R:3:forces:R:3:energies:R:1 material_id=wbm-3-69260 energy=-56.45677321115852 stress="0.0019517909713087625 1.3482781173557336e-07 -1.7879401499903338e-07 1.3482781173557336e-07 -0.0033173061330979614 0.0016027704598113757 -1.7879401499903338e-07 0.0016027704598113757 -0.0008848331797329799" free_energy=-56.45677321115852 pbc="T T T"
V       -0.00001575       3.72124819       0.97355279       0.00001099       0.00855747       0.01003306      -8.79219615
V        1.33610826       1.31913682       1.76623326      -0.00001099      -0.00855747      -0.01003306      -8.79219615
Fe       1.33591231       2.01532292      -0.58227280      -0.00000166      -0.00158493       0.00894752      -8.73721669
Fe       0.00000000      -0.00000000       0.00000000      -0.00000000      -0.00000000       0.00000000      -8.69039638
Fe       0.00018021       3.02506208       3.32205884       0.00000166       0.00158493      -0.00894752      -8.73721669
Si       1.33587978       4.25154676      -1.24772685      -0.00000473      -0.00384953       0.00547058      -6.35377557
Si       0.00021274       0.78883824       3.98751289       0.00000473       0.00384953      -0.00547058      -6.35377557
