10
Lattice="3.396960681148118 -2.027012099168314e-09 1.3143881067351375e-16 -1.6984803371804216 2.941854243917528 1.050764505879309e-16 -2.988966606531445e-16 -6.327039747182919e-16 12.754240981510645" Properties=species:S:1:pos:R:3:forces:R:3:energies:R:1 material_id=wbm-3-43791 energy=-84.89546299514912 stress="0.0017249854295450287 1.2715822701655289e-10 9.738270107559139e-18 1.2715822701655289e-10 0.001724985029337821 4.32153712593061e-17 9.738270107559139e-18 4.32153712593061e-17 -0.003773413742425902" free_energy=-84.89546299514912 pbc="T T T"
Ti       1.69848034       0.98061808       5.07286640       0.00000000       0.00000000       0.01608004      -9.44002220
Ti       0.00000000       1.96123616      11.44998689      -0.00000000      -0.00000000       0.01608004      -9.44002220
Ti       0.00000000       1.96123616       7.68137458      -0.00000000      -0.00000000      -0.01608004      -9.44002220
Ti       1.69848034       0.98061808       1.30425409       0.00000000       0.00000000      -0.01608004      -9.44002220
Se       0.00000000       0.00000000       9.56568074      -0.00000000      -0.00000000       0.00000000      -4.81265029
Se      -0.00000000      -0.00000000       3.18856025       0.00000000       0.00000000       0.00000000      -4.81265029
N        0.00000000       1.96123616       5.50046268       0.00000000       0.00000000       0.01069870      -9.37751840
N        1.69848034       0.98061808      11.87758317      -0.00000000      -0.00000000       0.01069870      -9.37751840
N        1.69848034       0.98061808       7.25377830      -0.00000000      -0.00000000      -0.01069870      -9.37751840
N        0.00000000       1.96123616       0.87665781       0.00000000       0.00000000      -0.01069870      -9.37751840
