6
Lattice="3.7019459649686675 -4.679800451760834e-05 -0.0003890066355472771 -0.0001431066560187256 4.737419804030052 -0.25784984108511416 -0.0005363038810226492 0.003930087861151162 7.253307639448221" Properties=species:S:1:pos:R:3:forces:R:3:energies:R:1 material_id=wbm-4-33053 energy=-31.16996741507576 stress="-0.0020848202289376247 -3.387099719988429e-06 -1.3790724914185183e-05 -3.387099719988429e-06 -0.0012080412851882066 0.0010045446062670383 -1.3790724914185183e-05 0.0010045446062670383 -0.0008233716669509087" free_energy=-31.16996741507576 pbc="T T T"
Cr       2.06341665       0.00190845       3.62643425       0.00621621       0.00019040       0.00002588     -10.08496912
S        0.22109563       3.27066070       4.00673104       0.00390701      -0.00446640       0.00437251      -4.60278810
S        1.90204629       0.95485980       5.76956997       0.00528814       0.05381527       0.01189103      -3.98676693
S        1.90222945       3.78648965       1.22538861       0.00513040      -0.05405634      -0.01183124      -3.98684864
S        0.22101772       1.47065528       2.98866632       0.00396977       0.00460920      -0.00438695      -4.60275927
S       -0.75851375       0.00002074       0.00019572      -0.02451154      -0.00009214      -0.00007122      -3.90583536
