4
Lattice="3.6865459617227194 -4.573748352552886e-10 2.1284283078691804 1.228848656686155 3.4757088648513945 2.128428306010976 -5.394603599398579e-10 -2.1731299443396036e-10 4.256856608903045" Properties=species:S:1:pos:R:3:forces:R:3:energies:R:1 material_id=wbm-4-2887 energy=-31.154176752354168 stress="-0.0005426668794623078 2.2503605521056649e-10 2.663407870559045e-10 2.2503605521056649e-10 -0.0005426668298650025 9.324937655143711e-11 2.663407870559045e-10 9.324937655143711e-11 -0.0005426664882819391" free_energy=-31.154176752354168 pbc="T T T"
Ti       2.45769731       1.73785443       4.25685661       0.00000000       0.00000001       0.00000001      -8.40231636
Al      -0.00000000      -0.00000000       0.00000000      -0.00000000      -0.00000000       0.00000000      -5.49495570
Ni       3.68654596       2.60678165       6.38528492       0.00000000       0.00000000      -0.00000000      -6.83690141
Os       1.22884865       0.86892722       2.12842831      -0.00000000      -0.00000001      -0.00000001     -10.42000328
