11
Lattice="4.104827040261807 0.0019510522351485343 -0.7559960644496461 -0.1408441931724986 4.102410480175875 -0.7559960641179655 -0.29432642413186105 -0.30474956498044237 9.92398970984935" Properties=species:S:1:pos:R:3:forces:R:3:energies:R:1 material_id=wbm-2-29311 energy=-79.4906388249219 stress="0.002680680679705151 6.58881904458124e-06 -0.00012025467086150628 6.58881904458124e-06 0.0026811393656369542 -0.00012451330473130037 -0.00012025467086150628 -0.00012451330473130037 0.002116149219731095" free_energy=-79.4906388249219 pbc="T T T"
Yb       0.59101747       0.61194749       3.21539836       0.00092254       0.00095521       0.00503084      -3.80854261
Yb       3.07863895       3.18766448       5.19659922      -0.00092254      -0.00095521      -0.00503084      -3.80854261
Yb       0.00000000      -0.00000000       0.00000000       0.00000000       0.00000000       0.00000000      -3.99895062
Zr       2.32687969       2.40928275       1.11722313      -0.00885974      -0.00917352      -0.03603661     -10.21461980
Zr       1.34277673       1.39032921       7.29477445       0.00885972       0.00917351       0.03603655     -10.21461979
N        2.31718640       0.27505247       1.06044102      -0.00076210       0.00114183      -0.00283839      -8.41073536
N        0.19427834       2.32535214       1.06044102       0.00116763      -0.00072192      -0.00283839      -8.41073536
N        1.35247002       3.52455950       7.35155657       0.00076210      -0.00114183       0.00283839      -8.41073537
N        3.47537808       1.47425982       7.35155656      -0.00116762       0.00072192       0.00283839      -8.41073537
N        2.68603489       2.78115692       3.06232649       0.00871219       0.00902072       0.04471914      -6.90121097
N        0.98362154       1.01845505       5.34967109      -0.00871217      -0.00902071      -0.04471908      -6.90121096
