4
Lattice="4.14075710070356 1.0503651867879395e-07 2.390799156456799 1.38005439061784 3.904011293691091 2.3910104680953883 -7.443456273238018e-05 -6.770332174822436e-05 4.78133197896308" Properties=species:S:1:pos:R:3:forces:R:3:energies:R:1 material_id=wbm-3-15536 energy=-28.408583749222263 stress="-0.0016712680684366453 -1.4483467676347253e-06 3.6309650025392757e-06 -1.4483467676347253e-06 -0.0016701049515753204 2.5289440224666125e-06 3.6309650025392757e-06 2.5289440224666125e-06 -0.00167542661186948" free_energy=-28.408583749222263 pbc="T T T"
Tb       1.38018426       0.97598592       2.39078540       0.00000000      -0.00000000       0.00000000      -5.49536659
Eu       4.14055279       2.92795777       7.17235620      -0.00000000      -0.00000000       0.00000000     -10.74300597
Co       5.52068167       3.90388505       4.78202624      -0.00009484      -0.00009171       0.00015844      -6.08510560
Co       2.76049835       1.95209819       4.78135419       0.00009485       0.00009171      -0.00015844      -6.08510560
