12
Lattice="5.288841984623935 -9.685183181926161e-05 4.182589636495043e-14 -2.6443242579708883 4.5803273647646146 -4.1519879863670364e-14 6.926569432502319e-14 -4.051022187083881e-14 7.949297129076135" Properties=species:S:1:pos:R:3:forces:R:3:energies:R:1 material_id=wbm-4-20981 energy=-82.00248248964061 stress="-0.0005412268080040463 -1.08764869888183e-07 3.2360745757311606e-15 -1.08764869888183e-07 -0.0005413523902422743 -1.8533781270283595e-15 3.2360745757311606e-15 -1.8533781270283595e-15 -0.002398700454864069" free_energy=-82.00248248964061 pbc="T T T"
Yb       2.64444817       1.52671415       7.46866969       0.00000442      -0.00000255      -0.00584021      -2.79511984
Yb       0.00006956       3.05351637       3.49402112      -0.00000442       0.00000255      -0.00584021      -2.79511984
Yb       2.64444817       1.52671415       4.45527601       0.00000442      -0.00000255       0.00584021      -2.79511984
Yb       0.00006956       3.05351637       0.48062744      -0.00000442       0.00000255       0.00584021      -2.79511984
Mn      -1.30346617       3.80614734       5.96197285      -0.02264614       0.01307535      -0.00000000      -8.29862660
Mn       2.64450147       3.03191466       1.98732428      -0.00001481       0.02614642      -0.00000000      -8.29862917
Mn       1.34090326       0.77411913       1.98732428      -0.02265139      -0.01305949      -0.00000000      -8.29862917
Mn       1.30361447       3.80611138       5.96197285       0.02265139       0.01305949      -0.00000000      -8.29862917
Mn       0.00001625       1.54831585       5.96197285       0.00001481      -0.02614642      -0.00000000      -8.29862917
Mn       3.94798390       0.77408318       1.98732428       0.02264613      -0.01307535      -0.00000000      -8.29862660
Os       0.00000000      -0.00000000       3.97464856       0.00000000      -0.00000000       0.00000000     -10.51511663
Os       0.00000000      -0.00000000       0.00000000       0.00000000      -0.00000000       0.00000000     -10.51511663
