11
Lattice="5.743744319546312 -0.215344737421063 -0.5339963328502378 -0.6106412057117947 5.0481285124199875 -1.7938167668611842 -0.14036013823754703 -0.21247143344644007 5.386039145989879" Properties=species:S:1:pos:R:3:forces:R:3:energies:R:1 material_id=wbm-3-55690 energy=-93.35673556073313 stress="0.0006120654718013887 -0.0020892012498121646 -0.0015781834180716718 -0.0020892012498121646 0.0007667974477245455 0.0007809820926014873 -0.0015781834180716718 0.0007809820926014873 0.0005632410116315373" free_energy=-93.35673556073313 pbc="T T T"
Ta      -0.29025586       1.46427360       3.09755725      -0.00240901       0.02694738      -0.03677876     -14.03593662
Ta      -0.46074548       3.37138348       0.49466513       0.00240901      -0.02694738       0.03677876     -14.03593662
Fe       2.91515180       3.44032953       2.32974823       0.03624573      -0.00875366      -0.00878780      -6.03484534
Fe       2.07759118       1.17998282       0.72847781      -0.03624573       0.00875366       0.00878780      -6.03484534
O        4.04913484       4.54159945       0.95511954      -0.00907994       0.01191057      -0.01766898      -7.80115938
O        4.22825671       2.53792859       3.68980157      -0.00678567      -0.01375332       0.01735802      -7.80115938
O        0.85146297       2.63414778       1.87423967      -0.01275016      -0.02402530      -0.01676793      -7.96593772
O        2.87187216      -0.10767237      -0.26699816       0.00000000      -0.00000000       0.00000000      -6.07865866
O        4.14128001       1.98616456       1.18398638       0.01275016       0.02402530       0.01676794      -7.96593772
O        0.76448627       2.08238375      -0.63157552       0.00678567       0.01375332      -0.01735802      -7.80115938
O        0.94360813       0.07871289       2.10310650       0.00907994      -0.01191057       0.01766898      -7.80115938
