8
Lattice="4.3545492520408065 -2.702103230866164e-09 1.4646386933415183e-16 -2.1772746215970216 3.771150273949682 1.385789378445759e-16 -5.500854924655154e-16 -9.243629766601433e-16 17.8047651995601" Properties=species:S:1:pos:R:3:forces:R:3:energies:R:1 material_id=wbm-3-79190 energy=-39.67351008250967 stress="0.00025183557007284126 1.1711248682043172e-11 1.940422312123748e-17 1.1711248682043172e-11 0.0002518355462215075 -4.5017232177785395e-17 1.940422312123748e-17 -4.5017232177785395e-17 -0.0011892906022487428" free_energy=-39.67351008250967 pbc="T T T"
Cs       2.17727463       1.25705009      13.35357390      -0.00000000      -0.00000000      -0.00000000      -2.41937345
Cs      -0.00000000       2.51410018       4.45119130       0.00000000       0.00000000       0.00000000      -2.41937345
Zr      -0.00000000       0.00000000      -0.00000000       0.00000000      -0.00000000      -0.00000000      -8.05969255
Zr      -0.00000000       0.00000000       8.90238260       0.00000000      -0.00000000       0.00000000      -8.05969255
Te       2.17727463       1.25705009       7.29632515       0.00000000       0.00000000       0.02168479      -4.67884452
Te       0.00000000       2.51410018      16.19870775      -0.00000000      -0.00000000       0.02168479      -4.67884452
Te       0.00000000       2.51410018      10.50844005      -0.00000000      -0.00000000      -0.02168479      -4.67884452
Te       2.17727463       1.25705009       1.60605745       0.00000000       0.00000000      -0.02168479      -4.67884452
