10
Lattice="4.051549332709746 -0.0004285129450558771 0.9639146836465486 1.9711918676248703 5.163539280154944 0.7152505255674371 -0.015677637921268882 0.03514230295866638 9.063212416036558" Properties=species:S:1:pos:R:3:forces:R:3:energies:R:1 material_id=wbm-2-46242 energy=-48.928232693323736 stress="0.001382303295054 0.00022114884918657965 0.0005516684816828985 0.00022114884918657965 0.0015972575771912006 -0.0008551700345779221 0.0005516684816828985 -0.0008551700345779221 -0.0007965481375770861" free_energy=-48.928232693323736 pbc="T T T"
Lu       1.79684893       1.39482595       1.44491536       0.00172396       0.00357178      -0.00688421      -4.70368749
Lu       2.65628135       1.63926143       6.83003744      -0.00020829      -0.00549743       0.00119114      -4.84053317
Lu       4.21021463       3.80342712       9.29746227      -0.00172396      -0.00357178       0.00688421      -4.70368749
Lu       3.35078221       3.55899164       3.91234019       0.00020828       0.00549743      -0.00119114      -4.84053317
Zn       3.33453643       0.51042809       3.97830557       0.00111060       0.02118220      -0.00406163      -1.57868069
Zn       2.67252713       4.68782498       6.76407206      -0.00111060      -0.02118220       0.00406163      -1.57868069
Si       4.25239564       0.84185300       9.11750613       0.00032968      -0.00953360      -0.00125662      -6.77948571
Si       1.13100835       1.57545736       4.24433502       0.00562134      -0.02805354      -0.02447966      -6.56172928
Si       1.75466792       4.35640007       1.62487150      -0.00032968       0.00953360       0.00125662      -6.77948571
Si       4.87605521       3.62279571       6.49804261      -0.00562134       0.02805354       0.02447966      -6.56172928
