6
Lattice="3.823144157703979 0.0005640895898217334 -0.9659487335667822 -0.2447172981797808 3.8153035128015826 -0.9659495047903351 -0.0016572989817234401 -0.0017670237657528367 8.053353249019043" Properties=species:S:1:pos:R:3:forces:R:3:energies:R:1 material_id=wbm-3-71384 energy=-44.01084753881729 stress="-0.0023473308221282204 3.803088698452942e-05 0.0002653883367290266 3.803088698452942e-05 -0.002342480334190875 0.00028295556715304826 0.0002653883367290266 0.00028295556715304826 -0.0010078172371004294" free_energy=-44.01084753881729 pbc="T T T"
Lu       2.42816432       2.58928168       1.56487867       0.00624468       0.00665912       0.02770196      -5.22737102
Lu       1.14860524       1.22481889       4.55657633      -0.00624468      -0.00665912      -0.02770196      -5.22737102
Nb      -0.12235865       1.90765175      -0.48297475       0.00000000       0.00000000       0.00000000      -9.41510660
Nb       1.91157208       0.00028204      -0.48297437      -0.00000000      -0.00000000       0.00000000      -9.41510659
Si       0.46273463       0.49343927       1.83189290       0.00809819       0.00863373       0.03783337      -7.36294616
Si       3.11403493       3.32066131       4.28956210      -0.00809819      -0.00863373      -0.03783337      -7.36294616
