6
Lattice="3.4679223791015756 -1.1817002515687229e-17 2.112821971378017e-16 3.3074513866091117e-16 3.4679223791015987 -2.8755595012768603e-16 -3.0924851043011104e-16 -3.0128812215012046e-15 10.256079878192145" Properties=species:S:1:pos:R:3:forces:R:3:energies:R:1 material_id=wbm-4-37363 energy=-44.97590136559699 stress="0.0016267081085185099 1.3075056176774315e-17 1.663154503931404e-17 1.3075056176774315e-17 0.001626708108519824 -1.4747779646117004e-16 1.663154503931404e-17 -1.4747779646117004e-16 -0.00212834959578236" free_energy=-44.97590136559699 pbc="T T T"
Tb      -0.00000000      -0.00000000      -0.00000000      -0.00000000      -0.00000000       0.00000000      -5.96567786
Tb      -0.00000000      -0.00000000       6.84155172      -0.00000000       0.00000000       0.02433336      -5.96887741
Tb      -0.00000000      -0.00000000       3.41452815      -0.00000000      -0.00000000      -0.02433336      -5.96887741
Os       1.73396119       1.73396119       8.53748040       0.00000000      -0.00000000      -0.00318161     -10.12793755
Os       1.73396119       1.73396119       1.71859947       0.00000000       0.00000000       0.00318161     -10.12793755
Pt       1.73396119       1.73396119       5.12803994       0.00000000       0.00000000      -0.00000000      -6.81659361
