4
Lattice="4.068372545886059 1.9590373592837828e-10 2.914626476293139e-14 -2.0341862730530504 3.8796346524625327 2.0343350161766263 3.1522601777090747e-14 -0.00022729610900039767 4.068364587358061" Properties=species:S:1:pos:R:3:forces:R:3:energies:R:1 material_id=wbm-2-14796 energy=-27.99456179635929 stress="-0.002625498447346147 1.03603170020149e-11 4.271925831018753e-15 1.03603170020149e-11 0.0003962834669157371 -5.643459193581984e-06 4.271925831018753e-15 -5.643459193581984e-06 -0.0026265940571538137" free_energy=-27.99456179635929 pbc="T T T"
Zr       2.03418627       1.93964685       4.06844095      -0.00000000      -0.00000000      -0.00000000      -9.93199745
Cu       0.00000000       1.93976050       2.03425866       0.00000000      -0.00000000       0.00000000      -4.12240997
Pt       0.00000000      -0.00022776       4.06837450       0.00000000       0.00001028      -0.00002024      -6.97007719
Pt       0.00000000       3.87952146       4.06850740      -0.00000000      -0.00001028       0.00002024      -6.97007719
