6
Lattice="3.9277991487140813 -6.171455808590592e-17 -6.84005767218183e-10 2.037898946838352e-16 3.9277991487140373 -6.840446420931344e-10 -1.2695329522583679e-09 -1.2695841369212878e-09 6.931294462254545" Properties=species:S:1:pos:R:3:forces:R:3:energies:R:1 material_id=wbm-1-44704 energy=-42.10999004975361 stress="0.0021441253342651253 3.6331652329862074e-17 -1.0674274207290202e-11 3.6331652329862074e-17 0.0021441253342576344 -1.0675766869649176e-11 -1.0674274207290202e-11 -1.0675766869649176e-11 -0.0027537436904096378" free_energy=-42.10999004975361 pbc="T T T"
Tb       2.94584936       2.94584936       5.83065201      -0.00000000      -0.00000000       0.00773718      -8.34039773
Tb       0.98194979       0.98194979       1.10064245       0.00000000       0.00000000      -0.00773718      -8.34039773
S        0.98194979       0.98194979       3.88751257      -0.00000000      -0.00000000      -0.00713695      -3.99304752
S        2.94584936       2.94584936       3.04378189       0.00000000       0.00000000       0.00713695      -3.99304752
O        2.94584936       0.98194979      -0.00000000      -0.00000000       0.00000000       0.00000000      -8.72154978
O        0.98194979       2.94584936      -0.00000000       0.00000000      -0.00000000      -0.00000000      -8.72154978
