5
Lattice="3.003405913884586 1.243764314137752e-06 0.8779041087743599 0.9202042304683528 5.215379691892571 2.4283258442693523 -0.07275421821201451 0.061864889277838994 5.8253315965041566" Properties=species:S:1:pos:R:3:forces:R:3:energies:R:1 material_id=wbm-2-33437 energy=-22.067629287656622 stress="0.001259875719681184 0.00026298029027969926 0.00020400089682438694 0.00026298029027969926 0.001283866150732503 -0.0009001413942788069 0.00020400089682438694 -0.0009001413942788069 0.0006219249773755718" free_energy=-22.067629287656622 pbc="T T T"
Rb       0.79336127       1.73384543       2.86226394      -0.01068718       0.02615964       0.03656197      -2.37645802
Rb       3.05749466       3.54340040       6.26929761       0.01068718      -0.02615964      -0.03656197      -2.37645802
Co      -0.00000000       0.00000000      -0.00000000      -0.00000000      -0.00000000      -0.00000000      -4.62050817
O        2.21759788       4.15500982       3.56622962       0.00421263       0.02187999      -0.01442303      -6.34710254
O        1.63325805       1.12223601       5.56533193      -0.00421263      -0.02187999       0.01442303      -6.34710254
