5
Lattice="6.390781049376059 -0.00019450855052151632 0.017088982763733034 0.0013917160545220937 6.397457101479166 0.0012136268152287205 -0.0018442563689194764 -7.362204013319482e-06 6.399070314909829" Properties=species:S:1:pos:R:3:forces:R:3:energies:R:1 material_id=wbm-1-21778 energy=-23.73297332951594 stress="0.0009085953126890958 6.671831570309175e-06 7.72327160462552e-05 6.671831570309175e-06 0.0009324326257720791 4.310921551851212e-06 7.72327160462552e-05 4.310921551851212e-06 0.0009404838816648333" free_energy=-23.73297332951594 pbc="T T T"
Cs      -0.00718897       6.38526986       6.37252002      -0.02882177      -0.00089218      -0.00582295      -3.37981742
Eu       3.09182966       3.18035438       3.15413615       0.01806272       0.01133235       0.02613770     -12.98666314
I        3.10750291       6.38547551       3.19622488      -0.00398155       0.00782973      -0.01349528      -2.45618656
I        6.28749970       3.25578669       3.28877659       0.02039591      -0.01416104      -0.02559818      -2.45486257
I        3.11229062       3.18369394       6.36701696      -0.00565531      -0.00410886       0.01877870      -2.45544364
