7
Lattice="3.9389626130798385 9.799903943896737e-11 1.4556924164694494 1.6645956394896393 5.547797069872285 1.552837277790149 0.08462776686758197 -0.271883323504413 5.8280772325055485" Properties=species:S:1:pos:R:3:forces:R:3:energies:R:1 material_id=wbm-3-12121 energy=-63.21971662368661 stress="-0.00016675237912649855 0.00022748694800866083 -0.0007620583871551872 0.00022748694800866083 0.0010612312917459973 -0.0006155576292172049 -0.0007620583871551872 -0.0006155576292172049 0.0016136756646864126" free_energy=-63.21971662368661 pbc="T T T"
Eu       2.59315624       0.74738511       5.09731403      -0.01315859       0.03502078       0.03560587     -12.10302878
Eu       3.09502977       4.52852864       3.73929289       0.01315859      -0.03502078      -0.03560587     -12.10302878
Si       1.31077522       2.17676201       2.51024104      -0.00188003      -0.01966650       0.00508718      -6.68214949
Si       4.37741080       3.09915174       6.32636589       0.00188003       0.01966650      -0.00508718      -6.68214949
Ru       2.00418987       3.54731561       6.69099996       0.00683692      -0.00886616      -0.01850004      -8.19061133
Ru       3.68399615       1.72859813       2.14560696      -0.00683692       0.00886616       0.01850004      -8.19061133
C       -0.00000000       0.00000000      -0.00000000       0.00000000      -0.00000000      -0.00000000      -9.26813744
