12
Lattice="7.972989312696295 1.9630355011742786e-10 4.606636414643935e-16 -3.9864946573725586 6.904811288576765 5.279537157928854e-16 -2.903164623631466e-17 3.1377466011513326e-17 8.39696790102201" Properties=species:S:1:pos:R:3:forces:R:3:energies:R:1 material_id=wbm-1-10532 energy=-33.14008906020475 stress="-0.0008469570992692134 -4.867383170683747e-12 8.397224044905794e-18 -4.867383170683747e-12 -0.0008469571272401828 1.6951981350782568e-17 8.397224044905794e-18 1.6951981350782568e-17 0.00010015967850705909" free_energy=-33.14008906020475 pbc="T T T"
As      -0.00000000       4.60320752       2.09924198      -0.00000000       0.00000000      -0.00000000      -4.23858631
As       3.98649466       2.30160377       6.29772592      -0.00000001      -0.00000000       0.00000000      -4.23858631
Cl      -1.89689792       5.69838204       2.09924198      -0.01529431       0.00883017       0.00000000      -2.58509623
Cl       3.98649465       4.49195281       6.29772592       0.00000000       0.01766035      -0.00000000      -2.58509623
Cl       3.98649466       2.30160377       0.16708142      -0.00000000       0.00000000      -0.04219484      -2.28808477
Cl      -0.00000000       4.60320752       4.36556537      -0.00000000      -0.00000000      -0.04219484      -2.28808477
Cl      -0.00000000       4.60320752       8.22988649      -0.00000000      -0.00000000       0.04219484      -2.28808477
Cl       3.98649466       2.30160377       4.03140253      -0.00000000       0.00000000       0.04219484      -2.28808477
Cl       5.88339258       1.20642924       6.29772592       0.01529432      -0.00883018      -0.00000000      -2.58509623
Cl      -0.00000000       2.41285848       2.09924198      -0.00000000      -0.01766035       0.00000000      -2.58509623
Cl       1.89689792       5.69838205       2.09924198       0.01529432       0.00883018       0.00000000      -2.58509623
Cl       2.08959674       1.20642924       6.29772592      -0.01529431      -0.00883018      -0.00000000      -2.58509623
