6
Lattice="3.9087681126789415 -2.284122998228864e-16 -5.79666094369169e-10 -2.1076291117290572e-16 3.908768112678925 -1.5033195623650971e-15 -9.885934279645202e-10 -7.320977253392943e-16 7.239606015509413" Properties=species:S:1:pos:R:3:forces:R:3:energies:R:1 material_id=wbm-3-75154 energy=-34.422392293502966 stress="-0.002563395705970845 -4.101030194160159e-17 -6.1388788882638e-11 -4.101030194160159e-17 -0.002563395705971631 -6.779656128639902e-16 -6.1388788882638e-11 -6.779656128639902e-16 -9.385209695209156e-05" free_energy=-34.422392293502966 pbc="T T T"
Ti       2.93157608       2.93157608       5.42341652      -0.00000000      -0.00000000      -0.03317873      -7.86691185
Ti       0.97719203       0.97719202       1.81618949       0.00000000       0.00000000       0.03317873      -7.86691185
Se       2.93157608       2.93157608       2.73932901       0.00000000      -0.00000000      -0.02279120      -4.90535478
Se       0.97719203       0.97719202       4.50027700      -0.00000000       0.00000000       0.02279120      -4.90535478
Se       2.93157608       0.97719202      -0.00000000      -0.00000000       0.00000000       0.00000000      -4.43892952
Se       0.97719203       2.93157608      -0.00000000       0.00000000       0.00000000       0.00000000      -4.43892952
