6
Lattice="4.781757431989435 -4.570692487591987e-10 -5.916703518309951e-11 -2.3908787142399075 4.141123411068725 5.5206397562878936e-11 -5.125534858218835e-11 2.5647135746662316e-11 12.10440074634687" Properties=species:S:1:pos:R:3:forces:R:3:energies:R:1 material_id=wbm-1-22986 energy=-17.825555042026625 stress="0.0012515881797355746 1.0394410037156562e-11 -1.5957034260950445e-12 1.0394410037156562e-11 0.0012515881770595442 7.979677233320729e-13 -1.5957034260950445e-12 7.979677233320729e-13 0.0007674461258067354" free_energy=-17.825555042026625 pbc="T T T"
K        2.39087872       1.38037447      -0.07767522       0.00000000       0.00000000      -0.00048805      -2.36622766
K        0.00000000       2.76074894       5.97452516      -0.00000000      -0.00000000      -0.00048805      -2.36622766
In       0.00000000      -0.00000000       8.73832472       0.00000000      -0.00000000      -0.03010199      -2.38763229
In       0.00000000      -0.00000000       2.68612435      -0.00000000       0.00000000      -0.03010199      -2.38763229
Sb       2.39087872       1.38037447       3.63136944       0.00000000       0.00000000       0.03059004      -4.15891757
Sb       0.00000000       2.76074894       9.68356982      -0.00000000      -0.00000000       0.03059004      -4.15891757
