7
Lattice="3.794338280183147 2.0527058817998434e-07 1.405922036119108 1.4854711310759623 5.419297893276556 1.8140629568786824 0.024128630258048973 0.034817596198306426 5.75797084527923" Properties=species:S:1:pos:R:3:forces:R:3:energies:R:1 material_id=wbm-4-5281 energy=-52.73760667207976 stress="-0.000818132431534472 0.00033344086860198814 -0.0008482360284058669 0.00033344086860198814 -0.00262435370547192 -0.0008998428520062649 -0.0008482360284058669 -0.0008998428520062649 0.0011568069192655639" free_energy=-52.73760667207976 pbc="T T T"
Dy       2.40723933       0.95088285       5.14946175       0.00077559       0.00479804      -0.00209446      -6.29682606
Dy       2.89669871       4.50323285       3.82849548      -0.00077556      -0.00479821       0.00209568      -6.29682616
Si       1.15621787       2.20273303       2.70266042       0.00391727       0.00221246      -0.01057160      -6.96643990
Si       4.14772017       3.25138271       6.27529715      -0.00391724      -0.00221251       0.01057122      -6.96644005
Ir       1.86305168       3.77762240       6.61812920      -0.00098715       0.00613928       0.00266336      -8.54641795
Ir       3.44088637       1.67649331       2.35982836       0.00098712      -0.00613924      -0.00266372      -8.54641802
C       -0.00000000      -0.00000002       0.00000092      -0.00000002       0.00000018      -0.00000048      -9.11823854
