4
Lattice="4.542860618305897 -6.446942073540108e-11 2.6228218041327334 1.5142868695582352 4.283050067675954 2.6228218017275733 -2.9284171161143015e-11 -1.0088497241088506e-10 5.245643603636795" Properties=species:S:1:pos:R:3:forces:R:3:energies:R:1 material_id=wbm-3-42131 energy=-19.37676828059432 stress="0.0005695749823794317 4.867739985495378e-12 5.276448825254766e-12 4.867739985495378e-12 0.0005695750181386008 1.3466511557169527e-11 5.276448825254766e-12 1.3466511557169527e-11 0.0005695749482291419" free_energy=-19.37676828059432 pbc="T T T"
Mn       4.54286061       3.21228755       7.86846541       0.00000000      -0.00000000       0.00000000      -7.01471166
Ge       1.51428687       1.07076252       2.62282180      -0.00000000      -0.00000000      -0.00000000      -4.26567760
Pb       3.02857374       2.14152503       5.24564360       0.00000000       0.00000000       0.00000000      -4.04818951
Pb      -0.00000000      -0.00000000      -0.00000000      -0.00000000      -0.00000000      -0.00000000      -4.04818951
