7
Lattice="3.6344128684164962 -9.862687238825541e-17 2.3241393363929057e-16 -2.3626093886517192e-17 3.6344128684165 -3.3244076274441474e-16 -4.708770245275109e-16 1.2239074892649621e-15 7.8027612096898515" Properties=species:S:1:pos:R:3:forces:R:3:energies:R:1 material_id=wbm-3-20255 energy=-25.61162455697312 stress="0.0007788861943804418 -1.5978222012210046e-17 1.892758400041927e-18 -1.5978222012210046e-17 0.0007788861943806299 8.748986457776327e-17 1.892758400041927e-18 8.748986457776327e-17 -7.031683536115496e-05" free_energy=-25.61162455697312 pbc="T T T"
Zn       1.81720644       1.81720644       0.00000000       0.00000000       0.00000000      -0.00000000      -1.96428481
Cu       0.00000000       1.81720644       1.84401942      -0.00000000       0.00000000       0.04426581      -3.79405312
Cu       0.00000000       1.81720644       5.95874179      -0.00000000       0.00000000      -0.04426581      -3.79405312
Cu       1.81720644       0.00000000       1.84401942       0.00000000      -0.00000000       0.04426581      -3.79405312
Cu       1.81720644       0.00000000       5.95874179       0.00000000      -0.00000000      -0.04426581      -3.79405312
Cu       0.00000000       0.00000000       0.00000000      -0.00000000      -0.00000000      -0.00000000      -3.81348151
Sb       0.00000000       0.00000000       3.90138061       0.00000000       0.00000000       0.00000000      -4.65764578
