6
Lattice="4.133243284317391 1.0925232250480397e-17 2.7714104500109244e-16 -2.511624216690224e-16 4.821117358650273 2.7836146074336297 -3.3707648683029307e-16 -0.00013928349861657915 5.567017359895403" Properties=species:S:1:pos:R:3:forces:R:3:energies:R:1 material_id=wbm-4-20941 energy=-42.91568007317644 stress="0.00012366583697389106 3.3573722014365533e-17 -4.050791853846063e-17 3.3573722014365533e-17 0.0013330222705529287 -5.708645738238544e-07 -4.050791853846063e-17 -5.708645738238544e-07 0.0013323584690722893" free_energy=-42.91568007317644 pbc="T T T"
Sm      -0.00000000      -0.00000000       0.00000000       0.00000000      -0.00000000      -0.00000000      -6.70139082
Mn       2.06662164       2.41055868       1.39180730       0.00000000      -0.00000000      -0.00000000      -7.99690296
Mn       2.06662164      -0.00006964       2.78350868       0.00000000       0.00000000      -0.00000000      -7.99690300
Mn       2.06662164       2.41048903       4.17531598       0.00000000       0.00000000       0.00000000      -7.99689347
Pd      -0.00000000       3.21398539       5.56708799      -0.00000001       0.00000042       0.00000072      -6.11179491
Pd      -0.00000000       1.60699268       2.78354397      -0.00000001      -0.00000042      -0.00000071      -6.11179491
