6
Lattice="4.2414396679998605 -9.865530378289522e-05 2.4491998316216765 1.4140603913035694 3.998932407459486 2.4494519998272857 -6.592646326622563e-05 -8.937508521321686e-05 4.897890916687808" Properties=species:S:1:pos:R:3:forces:R:3:energies:R:1 material_id=wbm-5-14487 energy=-24.798518641608897 stress="-0.003304005649884442 1.240985334670537e-05 1.3348246879975612e-05 1.240985334670537e-05 -0.0032915904896862348 1.8308899554790206e-05 1.3348246879975612e-05 1.8308899554790206e-05 -0.0032767622158149166" free_energy=-24.798518641608897 pbc="T T T"
Cd       0.00004155       0.00004726       0.00007490      -0.00004210       0.00001795      -0.00010934      -1.40718339
Cd       1.41382541       0.99973002       2.44911553       0.00008999       0.00002496       0.00007480      -1.40694734
Ni       1.41432348       2.49915425       4.89823511      -0.00864743       0.00310733       0.00007392      -5.49608663
Ni       2.82766291       0.50021913       4.89812900      -0.00004043      -0.00918124       0.00004399      -5.49609655
Ni       3.53444462       2.49915117       6.12254800       0.00431731       0.00299412       0.00740397      -5.49611299
Ni       3.53451368       2.49919694       3.67426072       0.00432266       0.00303688      -0.00748734      -5.49609174
