12
Lattice="3.0183319955597265 -2.9134147490797695e-09 1.1280281079813236e-10 -1.5091659936951067 2.61395210992219 4.172233748620307e-09 6.124923608815428e-10 2.7774523291489715e-08 14.457559879948748" Properties=species:S:1:pos:R:3:forces:R:3:energies:R:1 material_id=wbm-1-23759 energy=-67.05964025393537 stress="-0.0024386171528966278 1.0842418527919559e-10 -4.402359970396736e-11 1.0842418527919559e-10 -0.0024386276162261297 -2.3985260050419946e-09 -4.402359970396736e-11 -2.3985260050419946e-09 0.004378424154299388" free_energy=-67.05964025393537 pbc="T T T"
Li       0.00000000       1.74263477       9.57525959       0.00000000      -0.00000001      -0.00374031      -4.11147457
Li       1.50916600       0.87131736       4.88230029      -0.00000000       0.00000001       0.00374031      -4.11147457
Li      -0.00000000       0.00000000      -0.00000000       0.00000000      -0.00000000       0.00000000      -4.40304076
Li      -0.00000000       0.00000001       7.22877994      -0.00000000       0.00000000      -0.00000000      -4.00919670
Rh       0.00000000       1.74263471       2.44098772      -0.00000000       0.00000001       0.00602879      -6.14547144
Rh       1.50916600       0.87131742      12.01657217       0.00000000      -0.00000001      -0.00602879      -6.14547144
O        0.00000000       1.74263476      13.17221043       0.00000000       0.00000002      -0.02256124      -6.70665317
O        1.50916600       0.87131737       1.28534946      -0.00000000      -0.00000002       0.02256124      -6.70665317
O        0.00000000       0.00000008      10.86189843      -0.00000000      -0.00000003       0.00676436      -6.81156210
O       -0.00000000      -0.00000005       3.59566145       0.00000000       0.00000003      -0.00676436      -6.81156210
F        0.00000000       1.74263473       6.06161390       0.00000000       0.00000000       0.00623373      -5.54854011
F        1.50916600       0.87131740       8.39594598      -0.00000000      -0.00000000      -0.00623373      -5.54854011
