12
Lattice="5.757319163748231 5.360598288417884e-08 -1.1115638656103974e-05 5.380947424826532e-08 5.776651804184135 5.1470577187697736e-08 2.48580221601718e-06 5.1603151539500484e-08 5.820289694749649" Properties=species:S:1:pos:R:3:forces:R:3:energies:R:1 material_id=wbm-2-39104 energy=-55.837332407797064 stress="0.0010087766038258284 6.839487888808908e-10 -1.613116627803544e-07 6.839487888808908e-10 -0.00031466514398807444 -5.327454279157691e-10 -1.613116627803544e-07 -5.327454279157691e-10 -0.0029927003068529997" free_energy=-55.837332407797064 pbc="T T T"
Cu       2.90195526       2.92457862       1.49368256      -0.00486771       0.00010247       0.00408481      -3.89001936
Cu       2.90195623       0.03625326       4.32659608      -0.00486762       0.00010209      -0.00408477      -3.89001899
Cu       0.02329565       5.74039801       1.49368819      -0.00486771      -0.00010230       0.00408476      -3.89001933
Cu       0.02329675       2.85207196       4.32660168      -0.00486767      -0.00010228      -0.00408475      -3.89001901
P        2.28867706       5.18414789       2.11273331       0.01162832       0.01444686      -0.01593282      -5.36540357
P        5.16733664       3.48082876       2.11272770       0.01162859      -0.01444705      -0.01593315      -5.36540365
P        2.28867600       2.29582297       3.70754653       0.01162859       0.01444650       0.01593332      -5.36540282
P        5.16733550       0.59250236       3.70754093       0.01162862      -0.01444670       0.01593329      -5.36540272
S        3.48564781       0.57401547       0.87891345      -0.00676071      -0.00346339       0.01448854      -4.70391133
S        0.60698831       2.31430932       0.87891897      -0.00676111       0.00346394       0.01448893      -4.70391127
S        0.60698983       5.20263572       4.94136935      -0.00676077       0.00346369      -0.01448903      -4.70391018
S        3.48564944       3.46234130       4.94136384      -0.00676083      -0.00346383      -0.01448912      -4.70391016
