8
Lattice="4.569421343120986 -5.064915923784407e-17 2.4847849217584884e-16 3.228963425883379e-16 4.825262010673163 -2.7858665026222744 -1.5169779691503886e-16 -7.128868930293932e-07 5.571732800421642" Properties=species:S:1:pos:R:3:forces:R:3:energies:R:1 material_id=wbm-1-22489 energy=-53.362902327240846 stress="-0.001360176861960013 1.491137708936502e-17 -3.3149352890289943e-18 1.491137708936502e-17 0.0013525463474479103 -6.374289483823875e-08 -3.3149352890289943e-18 -6.374289483823875e-08 0.0013526398321971637" free_energy=-53.362902327240846 pbc="T T T"
Ir       3.42707058       1.60841953       2.78586910       0.00000000       0.00000017      -0.00000090      -8.50221297
Ir       1.14235991       3.21684057       0.00000204      -0.00000000      -0.00000023       0.00000115      -8.50221297
Pt       1.14235991       0.81278259       1.40778470      -0.00000000       0.02470092       0.04278364      -6.05974606
Pt       1.14235991       3.19969387       2.78586883      -0.00000000      -0.04940216      -0.00000007      -6.05974608
Pt       1.14235991       0.81278180       4.16395348      -0.00000000       0.02470265      -0.04278539      -6.05974605
Pt       3.42707058       4.01247764       1.37808642       0.00000000      -0.02470144      -0.04278345      -6.05974606
Pt       3.42707058       1.62556621       0.00000251       0.00000000       0.04940219      -0.00000051      -6.05974608
Pt       3.42707058       4.01247813      -1.37808236       0.00000000      -0.02470211       0.04278555      -6.05974605
