9
Lattice="3.507409801286081 0.00035211020408546125 1.173202130052859 1.7526071889808081 5.535654795299579 0.5866173728321168 -0.002725233491855038 6.444144921513807e-05 5.836027627839772" Properties=species:S:1:pos:R:3:forces:R:3:energies:R:1 material_id=wbm-4-7551 energy=-62.68571402270625 stress="-0.001859725522046712 -2.3386409738918206e-05 0.0006049793617321548 -2.3386409738918206e-05 -0.0037400456558535984 -5.023918911254205e-06 0.0006049793617321548 -5.023918911254205e-06 -0.003545698172587089" free_energy=-62.68571402270625 pbc="T T T"
Y       -0.00000000      -0.00000000      -0.00000000       0.00000000      -0.00000000       0.00000000      -7.93807074
Co       4.16445663       5.53583610       5.03424515       0.00043960       0.00007384      -0.00140847      -6.76489297
Co       1.09283513       0.00023524       2.56160198      -0.00043960      -0.00007384       0.00140847      -6.76489297
Co       3.50407241       3.45325821       7.00915751      -0.00005159      -0.00147518       0.00006047      -6.76489297
Co       2.36868231       3.58743008       4.57506026       0.00044786      -0.00253760      -0.00252618      -6.92208044
Co       1.13478898       3.58731241       2.43423395      -0.00080876      -0.00255051       0.00241865      -6.92195527
Co       0.61509298       1.94840682       3.98841105       0.00080876       0.00255051      -0.00241865      -6.92195527
Co       2.88860945       1.94864126       3.02078688      -0.00044786       0.00253760       0.00252618      -6.92208044
Co       1.75321934       2.08281314       0.58668962       0.00005160       0.00147518      -0.00006047      -6.76489297
