10
Lattice="4.253464907188313 4.169587341467182e-15 -8.481593754523105e-15 1.0366654154629667e-14 7.633545774486812 1.5600600530254637e-05 -1.8369158778056337e-14 -3.356792605758678e-06 7.633534886579425" Properties=species:S:1:pos:R:3:forces:R:3:energies:R:1 material_id=wbm-4-14446 energy=-45.22627816034131 stress="0.001252760588767706 3.321330051696905e-15 -3.093022231228054e-15 3.321330051696905e-15 -0.0019933387762015317 2.777012013242347e-07 -3.093022231228054e-15 2.777012013242347e-07 -0.0019933867387038956" free_energy=-45.22627816034131 pbc="T T T"
Nd       2.12673245       2.44715767       1.36960201      -0.00000000      -0.00086661       0.00086383      -5.50283191
Nd       2.12673245       6.26391882       2.44716592      -0.00000000      -0.00085175      -0.00088705      -5.50282910
Nd       2.12673245       1.36961203       5.18637619      -0.00000000       0.00088285       0.00086247      -5.50283495
Nd       2.12673245       5.18640527       6.26392288      -0.00000000       0.00084060      -0.00086105      -5.50282964
Hg       0.00000000       7.63350726       7.63350832      -0.00000000       0.00001244       0.00002184      -0.63728133
Hg       0.00000000       3.81677108       3.81683200      -0.00000000      -0.00000527      -0.00004020      -0.63728069
Ge      -0.00000000       4.70490292       0.88813287       0.00000000       0.00263306       0.00264173      -5.48508881
Ge      -0.00000000       0.88812955       2.92861863       0.00000000       0.00264406      -0.00263494      -5.48508230
Ge      -0.00000000       6.74541901       4.70489467       0.00000000      -0.00263920       0.00264942      -5.48511529
Ge      -0.00000000       2.92865202       6.74539023       0.00000000      -0.00265017      -0.00261606      -5.48510414
