5
Lattice="2.9724450185360087 -1.5741696125130025e-17 2.090847102631135e-16 4.626717602593181e-17 3.900735996494396 -0.9163722479739189 -4.199759259992459e-16 -0.41143815925229876 7.009145209835487" Properties=species:S:1:pos:R:3:forces:R:3:energies:R:1 material_id=wbm-5-12877 energy=-44.889446808515686 stress="-0.00011140656890358982 3.481659677638623e-18 -2.8476272350401766e-18 3.481659677638623e-18 0.0016601418187505031 -0.00039109262064745975 -2.8476272350401766e-18 -0.00039109262064745975 9.932381647694851e-05" free_energy=-44.889446808515686 pbc="T T T"
Ta       1.48622251       2.37215957       1.33752730       0.00000000       0.00702471       0.02918841     -11.37557249
Ta       1.48622251       1.11713827       4.75524567       0.00000000      -0.00702471      -0.02918841     -11.37557249
Mn       0.00000000       0.61261653       2.60793914      -0.00000000      -0.00251086      -0.01120989      -9.12590780
Mn       0.00000000       2.87668131       3.48483383      -0.00000000       0.00251086       0.01120989      -9.12590780
In       0.00000000      -0.00000000       0.00000000      -0.00000000       0.00000000       0.00000000      -3.88648623
