5
Lattice="4.294625347936181 8.495773728088834e-08 0.7940459737384556 2.0738147481885623 3.760715147436847 0.7945392804370321 0.022839452806026627 0.013800877433303969 11.88730539562665" Properties=species:S:1:pos:R:3:forces:R:3:energies:R:1 material_id=wbm-2-47446 energy=-23.926494728941496 stress="-0.0012367304176114425 1.595652407517372e-05 -0.0001457292484536183 1.595652407517372e-05 -0.0012518406592296083 -8.629431197178753e-05 -0.0001457292484536183 -8.629431197178753e-05 -0.00047548849665520203" free_energy=-23.926494728941496 pbc="T T T"
Pr       3.95252867       2.33382517       2.64429100       0.00325648       0.00192956      -0.01761376      -6.01875863
Pr       2.43875358       1.44069225      10.83159080      -0.00325682      -0.00192913       0.01761363      -6.01875863
Si       0.02284082       0.01380153      11.88730096      -0.00000031       0.00000026       0.00000006      -5.42009982
I        1.45926463       0.86119393       4.11835705       0.00775799       0.00462002      -0.04195776      -3.23443883
I        4.93201719       2.91332395       9.35752471      -0.00775734      -0.00462071       0.04195783      -3.23443882
