9
Lattice="4.1741263994108655 -8.668376924129991e-18 2.48914460702199e-16 6.228140899857305e-16 5.960908699883243 -3.4415322456371773 -2.196128805979456e-16 4.930340614855472e-10 6.883064485965062" Properties=species:S:1:pos:R:3:forces:R:3:energies:R:1 material_id=wbm-4-1047 energy=-52.505811975598604 stress="0.00019033781871929213 4.0210492747157944e-17 4.3674441535544966e-17 4.0210492747157944e-17 -0.0024097784628563075 -7.639827732946172e-11 4.3674441535544966e-17 -7.639827732946172e-11 -0.00240977844886405" free_energy=-52.505811975598604 pbc="T T T"
Ho      -0.00000000       0.00000000       4.04536144       0.00000000      -0.00000000      -0.02158078      -5.28519482
Ho       0.00000000       3.50338578      -2.02268072      -0.00000000      -0.01868950       0.01079039      -5.28519482
Ho       0.00000000       2.45752293       1.41885152       0.00000000       0.01868951       0.01079039      -5.28519482
Al       2.08706320       4.56196296       2.63385054       0.00000000      -0.00240084      -0.00138613      -4.77364669
Al       2.08706320       1.39894575      -0.80768170      -0.00000000       0.00240084      -0.00138613      -4.77364669
Al       2.08706320       0.00000000       1.61536340      -0.00000000       0.00000000       0.00277226      -4.77364669
Si       2.08706320       1.98696957       3.44153224      -0.00000000      -0.00000000      -0.00000000      -6.74674906
Si       2.08706320       3.97393913      -0.00000000       0.00000000       0.00000000       0.00000000      -6.74674906
Ir      -0.00000000       0.00000000      -0.00000000      -0.00000000      -0.00000000      -0.00000000      -8.83578933
