10
Lattice="4.566405119705276 1.667120214629301e-17 2.269834853153493e-16 4.135572738881413e-17 7.500589913990431 1.695775104914551e-14 -3.5197078808776356e-17 1.6498350963529603e-14 7.500589913990448" Properties=species:S:1:pos:R:3:forces:R:3:energies:R:1 material_id=wbm-2-49138 energy=-47.01456549520046 stress="0.001105360210240348 6.218529252828596e-19 1.4803589438825586e-17 6.218529252828596e-19 0.0003976767094458824 7.046476277046799e-16 1.4803589438825586e-17 7.046476277046799e-16 0.00039767670944642876" free_energy=-47.01456549520046 pbc="T T T"
Sr       2.28320256       6.20845776       5.04242711      -0.00000000       0.00021867      -0.00021867      -3.58648446
Sr       2.28320256       2.45816280       6.20845776      -0.00000000       0.00021867       0.00021867      -3.58648446
Sr       2.28320256       1.29213215       2.45816281      -0.00000000      -0.00021867       0.00021867      -3.58648446
Sr       2.28320256       5.04242711       1.29213215      -0.00000000      -0.00021867      -0.00021867      -3.58648446
Sn       0.00000000       3.75029496       3.75029496       0.00000000       0.00000000      -0.00000000      -4.36829772
Sn       0.00000000      -0.00000000       0.00000000       0.00000000       0.00000000       0.00000000      -4.36829772
Pt       0.00000000       1.00284816       4.75314312       0.00000000       0.00066619       0.00066619      -5.98300806
Pt       0.00000000       4.75314312       6.49774175       0.00000000       0.00066619      -0.00066619      -5.98300806
Pt       0.00000000       2.74744679       1.00284817       0.00000000      -0.00066619       0.00066619      -5.98300806
Pt       0.00000000       6.49774175       2.74744679       0.00000000      -0.00066619      -0.00066619      -5.98300806
