4
Lattice="3.4597877348988333 -1.224998591045981e-07 1.066361213473649 1.5655589670489842 3.0853129992700095 1.0663612104927003 -0.03494562824443471 -0.021454874795661317 6.259163337482309" Properties=species:S:1:pos:R:3:forces:R:3:energies:R:1 material_id=wbm-2-28424 energy=-27.06140833057705 stress="0.0008813747053695152 -0.00019102986993881204 0.0010094643095581884 -0.00019102986993881204 0.0010752407685157596 0.0006197607645169357 0.0010094643095581884 0.0006197607645169357 -0.0020827642246631596" free_energy=-27.06140833057705 pbc="T T T"
Ca      -0.00000000       0.00000000       0.00000000      -0.00000000       0.00000000      -0.00000000      -3.50919979
Nd       2.49520054       1.53192900       4.19594288       0.00000000      -0.00000000      -0.00000000      -6.22662579
N        3.77328917       2.31661184       6.19499674       0.00467878       0.00287254      -0.01518212      -8.66279138
N        1.21711190       0.74724616       2.19688901      -0.00467878      -0.00287254       0.01518212      -8.66279138
