10
Lattice="4.790393385547676 -1.2257573870998444e-17 2.959005296852908e-16 6.078381240987147e-17 6.796387060507394 1.818792825491667e-15 -3.2903037156898027e-16 8.179371417289502e-17 6.796387060507398" Properties=species:S:1:pos:R:3:forces:R:3:energies:R:1 material_id=wbm-2-27765 energy=-56.86512107865066 stress="0.0014431913560202566 -3.3906107592929735e-17 -5.829562324604124e-17 -3.3906107592929735e-17 -0.0006244354161124321 1.51150607717787e-17 -5.829562324604124e-17 1.51150607717787e-17 -0.0006244354161122111" free_energy=-56.86512107865066 pbc="T T T"
Ce       2.39519669       2.20192889       1.19626464       0.00000000      -0.01926393       0.01926393      -6.36598786
Ce       2.39519669       5.60012242       2.20192889       0.00000000      -0.01926393      -0.01926393      -6.36598786
Ce       2.39519669       4.59445817       5.60012242       0.00000000       0.01926393      -0.01926393      -6.36598786
Ce       2.39519669       1.19626464       4.59445817       0.00000000       0.01926393       0.01926393      -6.36598786
Mn      -0.00000000       3.39819353       3.39819353      -0.00000000       0.00000000      -0.00000000      -7.97026015
Mn      -0.00000000       0.00000000       0.00000000      -0.00000000       0.00000000       0.00000000      -7.97026015
Ga      -0.00000000       5.88740812       4.30717247      -0.00000000      -0.03703487       0.03703487      -3.86516233
Ga      -0.00000000       4.30717247       0.90897894      -0.00000000       0.03703487       0.03703487      -3.86516233
Ga      -0.00000000       2.48921459       5.88740812      -0.00000000      -0.03703487      -0.03703487      -3.86516233
Ga      -0.00000000       0.90897894       2.48921459      -0.00000000       0.03703487      -0.03703487      -3.86516233
