4
Lattice="4.186102557318778 -1.561791432291848e-09 2.1641477261957194 1.2884839486956925 3.8101852885784884 2.6383453348132675 0.17014208944502054 -0.22450707696437538 4.80154965950363" Properties=species:S:1:pos:R:3:forces:R:3:energies:R:1 material_id=wbm-4-38352 energy=-25.58713104300881 stress="-0.0017279434408626372 -0.0005862219310877404 -0.0008356806491752897 -0.0005862219310877404 -0.0013662238646915993 0.0011339268943952635 -0.0008356806491752897 0.0011339268943952635 -0.0005435229031293683" free_energy=-25.58713104300881 pbc="T T T"
Ce       4.23354762       2.68925732       7.20303046      -0.00000096       0.00000011       0.00000056      -6.49003501
V        1.41118192       0.89641966       2.40100986       0.00000121      -0.00000154      -0.00000092      -7.72257018
Ge       5.47455536       3.81016596       4.80255359       0.00032066       0.00107494      -0.00062032      -5.68726293
Ge       2.82239723       1.79285608       4.80195794      -0.00032091      -0.00107351       0.00062068      -5.68726292
