8
Lattice="4.257711650117198 -5.329402396250088e-17 1.1545603348564032e-16 6.699717411750586e-17 4.257711650117196 -7.793199954345257e-16 -8.97722369890612e-17 -3.3097036527501855e-15 10.76680004505542" Properties=species:S:1:pos:R:3:forces:R:3:energies:R:1 material_id=wbm-2-37029 energy=-42.613239651083084 stress="0.0003626254787347726 -5.962114628070163e-18 1.854215024107069e-17 -5.962114628070163e-18 0.0003626254787352162 -3.660471755008986e-17 1.854215024107069e-17 -3.660471755008986e-17 -0.0019161660192609504" free_energy=-42.613239651083084 pbc="T T T"
La       3.19328374       3.19328374       9.63648665       0.00000000      -0.00000000       0.00829796      -6.99125425
La       1.06442791       1.06442791       1.13031340       0.00000000       0.00000000      -0.00829796      -6.99125425
Cd       3.19328374       1.06442791       5.38340002       0.00000000      -0.00000000       0.00000000      -0.65461278
Cd       1.06442791       3.19328374       5.38340002      -0.00000000       0.00000000       0.00000000      -0.65461278
Bi       1.06442791       1.06442791       7.67668521      -0.00000000       0.00000000      -0.01100238      -4.56104682
Bi       3.19328374       3.19328374       3.09011483      -0.00000000      -0.00000000       0.01100237      -4.56104682
O        1.06442791       3.19328374      -0.00000000       0.00000000      -0.00000000      -0.00000000      -9.09970598
O        3.19328374       1.06442791      -0.00000000      -0.00000000       0.00000000      -0.00000000      -9.09970598
