4
Lattice="4.664775915505533 -2.085156818688938e-08 2.6932096989438654 1.5549253977698378 4.397992996190699 2.6932096938485888 1.2436287339946189e-09 2.7162198337957664e-10 5.386419397649971" Properties=species:S:1:pos:R:3:forces:R:3:energies:R:1 material_id=wbm-2-8795 energy=-8.874583806058471 stress="-0.0017075767508580482 1.2789122084411126e-09 -5.867430079386394e-11 1.2789122084411126e-09 -0.0017075738125134118 -5.365790442128991e-13 -5.867430079386394e-11 -5.365790442128991e-13 -0.0017075732771720618" free_energy=-8.874583806058471 pbc="T T T"
Ca       4.66477995       3.29849214       8.07962715      -0.00000398       0.00000195       0.00000088      -2.73335544
Cd       0.00000213      -0.00000116      -0.00000065       0.00000246      -0.00000111      -0.00000040      -0.50277365
Cd       3.10985282       2.19899532       5.38641874       0.00000248      -0.00000112      -0.00000040      -0.50277365
Bi       1.55492951       1.09949875       2.69321294      -0.00000095       0.00000028      -0.00000009      -5.13568105
