6
Lattice="4.940336715300829 -3.187729141661962e-17 2.810768849460468e-16 5.9944687961155205e-16 5.414972485253969 -3.126868177478159 -1.7760688779969229e-16 0.000187589105228302 6.252936169971906" Properties=species:S:1:pos:R:3:forces:R:3:energies:R:1 material_id=wbm-2-25583 energy=-12.274987117654154 stress="-0.0008889866523863637 5.353254441256632e-17 5.027689682715849e-17 5.353254441256632e-17 0.0016641259863911782 -4.159317894000147e-06 5.027689682715849e-17 -4.159317894000147e-06 0.0016688671153642155" free_energy=-12.274987117654154 pbc="T T T"
Ac       2.47016836       1.80507169       1.04203298      -0.00000000      -0.00000366      -0.00000141      -5.16918173
Mg       0.00000000       4.51072098       2.60395286       0.00000000       0.00046799       0.00026977      -1.44407703
Mg       2.47016836       3.60998609      -2.08453906      -0.00000000      -0.00001873       0.00001260      -1.38681788
Mg       0.00000000       4.51446735      -0.52250791       0.00000000      -0.00044728       0.00025670      -1.44404621
Mg       2.47016836       0.00016131       4.16860756      -0.00000000       0.00000148      -0.00002207      -1.38681782
Mg      -0.00000000       1.80516125       4.17070860       0.00000000       0.00000021      -0.00051559      -1.44404645
