5
Lattice="4.001330875904427 -7.480790094769613e-08 2.034136320757225e-08 -7.480790421761472e-08 4.001330835474964 -1.9407323737107228e-08 2.0341362609275027e-08 -1.9407323673187128e-08 4.001330841238741" Properties=species:S:1:pos:R:3:forces:R:3:magmoms:R:1 material_id=wbm-1-39473 energy=-35.493507385253906 stress="0.002892760094255209 1.9860064526255883e-07 -6.72794797651477e-08 1.9656421557101567e-07 0.0028930106200277805 -2.644682410846144e-07 -7.814613667278536e-08 -2.683703712591523e-07 0.0028924657963216305" free_energy=-35.493507385253906 pbc="T T T"
Rb       0.00000000      -0.00000001      -0.00000013       0.00000044      -0.00000004       0.00000169       0.02193697
Tc       2.00066555       2.00066561       2.00066556      -0.00000035       0.00000432      -0.00000346       0.41294041
O        2.00066548       2.00066550      -0.00000016       0.00000313       0.00000105      -0.00000132       0.01268238
O        2.00066541      -0.00000042       2.00066547       0.00000349      -0.00000911      -0.00000074       0.01268238
O       -0.00000021       2.00066542       2.00066551      -0.00000644       0.00000413       0.00000391       0.01268244
