4
Lattice="3.855020297199468 -6.927852516227206e-08 2.225696927810522 1.2850067109764474 3.634547680043664 2.225696909520573 -8.629287641502246e-08 -8.341880295726878e-08 4.451394005084687" Properties=species:S:1:pos:R:3:forces:R:3:magmoms:R:1 material_id=wbm-1-55773 energy=-35.13144302368164 stress="0.002835071412846446 -4.0247506660762156e-08 8.409878660131653e-08 -4.154912502940533e-08 0.0028346828185021877 2.0427405544864996e-08 8.406838958308072e-08 2.523847264512824e-08 0.002834906568750739" free_energy=-35.13144302368164 pbc="T T T"
Ti       0.00000004       0.00000012       0.00000006       0.00000258       0.00000010       0.00000105       0.00588435
Ti       2.57001340       1.81727352       4.45139401      -0.00000115       0.00000078       0.00000240       0.00588441
Si       1.28500669       0.90863680       2.22569722      -0.00000063       0.00000018       0.00000301       0.03506857
W        3.85502024       2.72591086       6.67709048      -0.00000079      -0.00000093      -0.00000646       0.05789882
