6
Lattice="4.477692588728532 1.4096703482725058e-07 1.765960940148268e-08 1.7574665439607476e-07 4.794948308409584 -2.768364942882472 1.3002815036561836e-08 -1.0796754875531435e-07 5.536729685315019" Properties=species:S:1:pos:R:3:forces:R:3:magmoms:R:1 material_id=wbm-4-16842 energy=-38.61087417602539 stress="0.0011505335569381714 1.1850635672772114e-07 1.746465301266653e-07 1.203769954827294e-07 -0.002331165596842766 3.9987046562828255e-08 1.8085087560848478e-07 4.058516367422271e-08 -0.0023312096018344164" free_energy=-38.61087417602539 pbc="T T T"
Sm      -0.00000004       0.00000045      -0.00000055       0.00000016       0.00000060      -0.00000034       0.01163477
In       0.00000072       3.19663295      -0.00000082      -0.00001695       0.00000366      -0.00000137       0.01300037
In      -0.00000028       1.59831663       2.76836416       0.00000219      -0.00000117       0.00000614       0.01300037
Ir       2.23884654       2.39747360       1.38418226       0.00000066       0.00000131      -0.00000664       0.00632209
Ir       2.23884654       2.39747259      -1.38418164       0.00000419       0.00000093       0.00000264       0.00632215
Ir       2.23884570       0.00000040       2.76836611       0.00000993      -0.00000529      -0.00000041       0.00632215
