6
Lattice="3.802054886435748 -4.726347572043238e-07 -3.877115546572188e-07 -4.726349525139087e-07 3.802054371330727 9.045341979918449e-08 -7.689468068018088e-07 1.8149014786832288e-07 7.519540939292609" Properties=species:S:1:pos:R:3:forces:R:3:magmoms:R:1 material_id=wbm-3-75154 energy=-36.410972595214844 stress="0.00037898647133260965 6.268616061788634e-07 -3.239305002011861e-08 6.461158932324906e-07 0.00037898673326708376 -1.0460772159603948e-07 -3.705935469611177e-08 -1.1161885993260512e-07 -0.002660945523530245" free_energy=-36.410972595214844 pbc="T T T"
Ti       2.85154520       2.85154293       5.51840788       0.00001138       0.00006191       0.00883096       0.02014518
Ti       0.95050773       0.95051510       2.00113387      -0.00005667       0.00001113      -0.00877802       0.02014516
Se       2.85154273       2.85153879       2.80566818       0.00003581      -0.00001933       0.00362877       0.01306140
Se       0.95051204       0.95051213       4.71387143       0.00000901      -0.00004356      -0.00364912       0.01306212
Se       2.85154032       0.95051303      -0.00000040       0.00000653      -0.00000048      -0.00001251       0.02942997
Se       0.95051367       2.85154007      -0.00000002      -0.00000627      -0.00000969      -0.00002016       0.02942997
