12
Lattice="4.310773492473707 2.7745950328511868e-08 -1.9662591764020864e-07 4.432587516739918e-08 6.934754634597214 -2.1845771920364615e-08 -3.402052927830921e-07 -2.372362803890465e-08 7.517133382946124" Properties=species:S:1:pos:R:3:forces:R:3:magmoms:R:1 material_id=wbm-3-20567 energy=-53.322166442871094 stress="-0.0016380888409912586 4.510050644057628e-08 1.495884660585034e-08 4.450924251386823e-08 -0.0018378444947302341 4.225061545071185e-08 1.4942241222115626e-08 4.2653695686567517e-08 -0.0009359514806419611" free_energy=-53.322166442871094 pbc="T T T"
Dy       3.23308132       3.37271808       1.49102432       0.00000083      -0.00562205      -0.00434717       0.00650975
Dy       1.07769347       0.09466014       5.24959051       0.00000238       0.00561888      -0.00434521       0.00650980
Dy       3.23307902       6.84009579       2.26754230       0.00000202      -0.00562513       0.00434620       0.00650978
Dy       1.07769228       3.56203768       6.02610853       0.00000439       0.00561817       0.00435063       0.00650989
Ga       1.07769255       1.22553131       0.58458904       0.00000126       0.02211703       0.01980257       0.01185930
Ga       3.23307972       2.24184608       4.34315544      -0.00000096      -0.02211563       0.01980324       0.01185960
Ga       1.07769300       4.69290822       3.17397781       0.00000314       0.02211455      -0.01980441       0.01185942
Ga       3.23308029       5.70922293       6.93254374      -0.00000166      -0.02211405      -0.01980155       0.01185942
Cu       1.07769440       5.49631531       0.75388856      -0.00000078       0.02352175      -0.01797678       0.00562477
Cu       3.23307983       1.43843868       6.76324410      -0.00000368      -0.02351851       0.01797967       0.00562453
Cu       1.07769240       2.02893741       3.00467885      -0.00000113       0.02352365       0.01797472       0.00562453
Cu       3.23308092       4.90581623       4.51245579      -0.00000583      -0.02351864      -0.01798193       0.00562489
