6
Lattice="3.482012389908825 9.019739938359328e-09 3.1835790609949266e-08 9.019740246986836e-09 3.482012455273502 -3.631439197132348e-08 9.348265083238063e-08 -1.0650772107603932e-07 10.197017947099914" Properties=species:S:1:pos:R:3:forces:R:3:magmoms:R:1 material_id=wbm-4-37363 energy=-45.02946853637695 stress="-0.0002495122898835689 4.129657682483412e-08 5.093178856441227e-08 4.14727949760163e-08 -0.00024956333800219 -9.524189437115638e-09 5.4423864526143007e-08 -8.691592334741927e-09 -0.0003465895133558661" free_energy=-45.02946853637695 pbc="T T T"
Tb       0.00000055      -0.00000085      -0.00000008      -0.00000125      -0.00000754      -0.00000077       0.02518305
Tb       0.00000001       0.00000011       6.87766009      -0.00000012       0.00000501      -0.03580332       0.01562741
Tb       0.00000017      -0.00000005       3.31935778       0.00000012       0.00000197       0.03580284       0.01562768
Os       1.74100620       1.74100674       8.52359148      -0.00000009      -0.00000176       0.01291502       0.00639141
Os       1.74100579       1.74100644       1.67342634      -0.00000066       0.00000238      -0.01291478       0.00639141
Pt       1.74100610       1.74100607       5.09850926       0.00000206       0.00000005       0.00000115       0.02133381
