10
Lattice="4.349046770728785 9.955093108937244e-08 -2.3096605956924244e-07 2.677912195373183e-07 7.324771452179605 5.810685102777433e-07 -5.269705331112326e-07 5.81068575483718e-07 7.3247717803299235" Properties=species:S:1:pos:R:3:forces:R:3:magmoms:R:1 material_id=wbm-1-47682 energy=-81.01579284667969 stress="0.0016256499802693725 2.2094242879688863e-08 -4.794557995069226e-08 2.2751345696292447e-08 -0.0002890957985073328 -1.5342388692829445e-08 -4.710404155616743e-08 -1.4640733958515284e-08 -0.0002891207695938647" free_energy=-81.01579284667969 pbc="T T T"
Eu       2.17452469       2.39341398       1.26897131      -0.00000640      -0.00193828       0.00194267       6.80130768
Eu       2.17452258       1.26897151       4.93135757       0.00000160       0.00193710       0.00193649       6.80130768
Eu       2.17452272       4.93135776       6.05580009       0.00000442       0.00194089      -0.00193879       6.80130720
Eu       2.17452275       6.05579985       2.39341456       0.00000290      -0.00193932      -0.00193944       6.80130768
In      -0.00000018       0.00000018      -0.00000016      -0.00000028       0.00000072      -0.00000049       0.00407088
In      -0.00000035       3.66238625       3.66238707       0.00000014      -0.00000598      -0.00000445       0.00407100
Rh       0.00000089       4.61150583       0.94911934      -0.00000232       0.01259908       0.01259962       0.00668478
Rh       0.00000052       6.37565268       4.61150540      -0.00000299      -0.01259865       0.01260155       0.00668478
Rh      -0.00000176       0.94911861       2.71326715       0.00000573       0.01260573      -0.01260078       0.00668454
Rh       0.00000059       2.71326770       6.37565287      -0.00000280      -0.01260123      -0.01259638       0.00668466
