5
Lattice="4.085561836916942 -1.0429478254646415e-07 1.6798158783920238 1.3245994541805746 4.635693073158497 2.5866311431358633 0.143655363779524 0.33922292191909437 5.4588618067868415" Properties=species:S:1:pos:R:3:forces:R:3:magmoms:R:1 material_id=wbm-3-77676 energy=-34.6623649597168 stress="-0.0006889738724566996 0.00010955980542348698 -0.0006052760872989893 0.0001095608968171291 0.0009732944308780134 -0.0002664428611751646 -0.0006052760290913284 -0.00026644227909855545 0.0005343431257642806" free_energy=-34.6623649597168 pbc="T T T"
Er       4.29677380       3.48140477       6.97437049      -0.01377022       0.02616628       0.03349096       0.02137315
Er       1.25704303       1.49351196       2.75093827       0.01376913      -0.02617282      -0.03348863       0.02137309
Zn       0.00000006      -0.00000033      -0.00000043       0.00000118       0.00000173       0.00000100       0.00318134
Os       2.50407541       1.49484922       5.52622393      -0.00215686      -0.00784042       0.00524619       0.00358301
Os       3.04974102       3.48006616       4.19908537       0.00215679       0.00784526      -0.00524952       0.00358319
