6
Lattice="3.9010961752124684 4.4900489648515097e-07 3.3853720096101816e-05 4.490073246803643e-07 3.9010961803978983 3.765337124354414e-05 6.014135061291868e-05 6.688738142708212e-05 6.882251220023203" Properties=species:S:1:pos:R:3:forces:R:3:magmoms:R:1 material_id=wbm-1-44704 energy=-44.358604431152344 stress="-0.0006661552470177412 -1.5188531321541632e-08 -3.265383929829113e-05 -1.944821725885504e-08 -0.0006661577499471605 -3.65106352546718e-05 -3.2648455089656636e-05 -3.650562575785443e-05 -0.00272185867652297" free_energy=-44.358604431152344 pbc="T T T"
Tb       2.92588627       2.92589128       5.76989659       0.00011109       0.00012273      -0.02120867       0.00591905
Tb       0.97527269       0.97527095       1.11242591      -0.00011255      -0.00012185       0.02122355       0.00591898
S        0.97564857       0.97569804       3.88059116       0.00305771       0.00343762      -0.01551425       0.03149520
S        2.92550406       2.92546791       3.00173152      -0.00305758      -0.00343741       0.01551098       0.03149495
O        2.92582767       0.97526883       0.00003503       0.00004008      -0.00004933      -0.00000612       0.01442146
O        0.97527092       2.92582662       0.00003685      -0.00003873       0.00004848      -0.00000577       0.01442167
