11
Lattice="4.305296216119611 -0.002207971243538739 1.8799644707707548 1.569807484523332 4.414231573956264 2.238760755391964 -0.18374382465580213 0.37191420548223997 6.188976524358959" Properties=species:S:1:pos:R:3:forces:R:3:magmoms:R:1 material_id=wbm-3-8387 energy=-83.39126586914062 stress="-0.0004464279336389154 0.000623925996478647 0.0010438001481816173 0.0006239391514100134 0.0036925673484802246 -0.0011507237795740366 0.00104381307028234 -0.0011507263407111168 -0.004198035225272179" free_energy=-83.39126586914062 pbc="T T T"
Ta       2.24044085       4.20528808       6.51219379      -0.00272683      -0.01678126       0.01563838       0.02495700
Ta       3.45022150       0.57883232       3.79520508      -0.00022104       0.01647565      -0.01713151       0.02495795
Ni       0.94177651       1.62414689       6.57043919       0.00521214      -0.02231159       0.00668719       0.02290678
Ni       4.74912020       3.15985457       3.73826205      -0.00540599       0.02184980      -0.00434044       0.02272069
Ni       0.69580323       2.39297197       4.21513046       0.00593162      -0.00004938       0.00320325       0.00625813
Ni       3.08027486       1.62588043       7.48672625      -0.01472700      -0.02361691      -0.00148323       0.02139676
Ni       2.61141848       3.15788288       2.82002108       0.01503611       0.02373479      -0.00086856       0.02154469
B        1.63232580      -0.11866593       2.15701927      -0.02444851      -0.00067961       0.02997646       0.02772060
B        4.05837006       4.90261317       8.15029934       0.02163485       0.00161514      -0.03085743       0.02771652
B        4.27079472       3.29752132       7.72030760      -0.00632776       0.02071151       0.03301974       0.03161035
B        1.41928511       1.48643615       2.58677297       0.00604258      -0.02094789      -0.03384391       0.03160331
