10
Lattice="4.045095883071438 -0.00040571811595289855 0.9622500454932214 1.9642146439230632 5.197477020159505 0.7302630449807413 -0.01175212463089727 0.06411505348346211 9.031166304146678" Properties=species:S:1:pos:R:3:forces:R:3:magmoms:R:1 material_id=wbm-2-46242 energy=-48.551029205322266 stress="-0.0005567070911638439 0.00026418850757181644 0.00043753511272370815 0.0002641890605445951 -0.0006323460256680846 -0.0010756447445601225 0.0004375369753688574 -0.0010756459087133408 -0.002312542637810111" free_energy=-48.551029205322266 pbc="T T T"
Lu       1.78699798       1.43817338       1.47227756       0.00030290       0.00955075      -0.00069509       0.00195742
Lu       2.64635665       1.76659712       6.84237864      -0.00675873       0.01927878       0.02796053       0.00159118
Lu       4.21056082       3.82301432       9.25140399      -0.00031394      -0.00958002       0.00068136       0.00195801
Lu       3.35120188       3.49459002       3.88129918       0.00674006      -0.01927654      -0.02797612       0.00159097
Zn       3.33696037       0.47392696       3.94031241       0.00544193       0.00409269      -0.02386797       0.00913119
Zn       2.66059857       4.78725843       6.78336679      -0.00542423      -0.00408939       0.02386800       0.00913119
Si       4.24606989       0.89558641       9.10040080       0.00145280       0.00689138      -0.00673658       0.00123924
Si       1.11326640       1.45321782       4.30514708       0.00341525       0.02747148      -0.01529690       0.00168765
Si       1.75148665       4.36560009       1.62327531      -0.00143406      -0.00687222       0.00677576       0.00123966
Si       4.88429279       3.80796725       6.41853521      -0.00342196      -0.02746683       0.01528706       0.00168756
