4
Lattice="4.232101128109995 -1.1619305329912756e-07 2.443404814323448 1.41070029810713 3.990063133693791 2.4434047595031174 1.2343130916690718e-07 2.013819475448961e-08 4.886809414857603" Properties=species:S:1:pos:R:3:forces:R:3:magmoms:R:1 material_id=wbm-2-19357 energy=-26.588163375854492 stress="-0.0012853869702666998 1.800601090451437e-08 -5.078686982074032e-08 1.7574222965777153e-08 -0.0012853468069806695 -3.1104132602877144e-08 -5.040941886136352e-08 -2.9249290989241672e-08 -0.0012853454099968076" free_energy=-26.588163375854492 pbc="T T T"
Gd       4.23210113       2.99254721       7.33021401      -0.00000315       0.00000240      -0.00000306       7.09654427
Au       0.00000001       0.00000004       0.00000005      -0.00000027       0.00000042      -0.00000081       0.02162874
Au       2.82140079       1.99503159       4.88680969       0.00000030      -0.00000278       0.00000110       0.02162880
Au       1.41070039       0.99751571       2.44340473       0.00000314      -0.00000004       0.00000275       0.01921922
