12
Lattice="3.8147295264961314 -1.5016611145985617e-07 -1.0070013055245453 -2.8666105519309923e-07 6.294218986207305 -1.901423007409492e-07 -0.025685488136986043 -2.407175114507141e-07 7.64704390260239" Properties=species:S:1:pos:R:3:forces:R:3:magmoms:R:1 material_id=wbm-4-12109 energy=-89.69475555419922 stress="-0.0011566032189875841 -2.1100353819747397e-07 0.0010465006344020367 -2.0376513987230283e-07 -0.00034092203713953495 1.079694200711856e-07 0.00104648363776505 1.0250668225353365e-07 0.0025380931328982115" free_energy=-89.69475555419922 pbc="T T T"
La       0.45716981       4.72066463       1.73830987      -0.00350133       0.00001186      -0.01378693       0.03901890
La       3.33187673       1.57355428       4.90173536       0.00347710       0.00000126       0.01378631       0.03901890
Fe       1.90736304       3.14712078      -0.50350462      -0.00000026       0.00001700      -0.00000426       2.51479197
Fe       1.90736389      -0.00000899      -0.50350328      -0.00000050      -0.00001504      -0.00000398       2.51479077
Fe       2.54987773       0.42953384       1.93858102       0.00351349       0.01465446       0.01563852       2.32676268
Fe       1.23916659       5.86468419       4.70146138      -0.00351806      -0.01465505      -0.01563504       2.32675958
Fe       1.23916678       3.57664378       4.70146082      -0.00351112       0.01465338      -0.01563707       2.32675791
Fe       2.54987787       2.71757403       1.93858141       0.00350033      -0.01466584       0.01564460       2.32676291
Fe       0.26484475       1.57355441       1.01801344      -0.00078841      -0.00000021      -0.00390109       2.61591411
Fe       3.52419816       4.72066333       5.62203161       0.00080146      -0.00000036       0.00390750       2.61590815
Co       0.86500565       1.57355432       3.28475682       0.01277572       0.00000105       0.04788516       1.02740204
Co       2.92403718       4.72066373       3.35528681      -0.01274842      -0.00000288      -0.04789390       1.02740180
