4
Lattice="4.6158942068421265 3.0065152147151285e-09 2.664987954454689 1.5386314973313684 4.351907228189921 2.6649879820930154 -3.608507266291433e-08 1.3907527579002855e-08 5.329975973306747" Properties=species:S:1:pos:R:3:forces:R:3:magmoms:R:1 material_id=wbm-2-8795 energy=-9.04096794128418 stress="-0.0018264491809532046 -1.8155527081731293e-09 -5.9844995625724096e-09 -1.8143152535898821e-09 -0.001826400519348681 -1.2038586127971485e-08 -5.351522336383141e-09 -1.1200023131152648e-08 -0.0018264316022396088" free_energy=-9.04096794128418 pbc="T T T"
Ca       4.61589915       3.26392761       7.99496212      -0.00000450       0.00000266       0.00000252       0.02457118
Cd       0.00000150      -0.00000086      -0.00000055       0.00000196      -0.00000114      -0.00000099       0.00417942
Cd       3.07726436       2.17595275       5.32997546       0.00000168      -0.00000127      -0.00000151       0.00417948
Bi       1.53863579       1.08797701       2.66499083       0.00000085      -0.00000025      -0.00000002       0.02750677
