7
Lattice="2.639969850086452 3.3364454006801684e-05 -0.00015413192757518667 -1.320196677002344 5.158275863212013 -3.267963380532805 0.0002789331878956801 -0.01795213353781387 6.0139416499496" Properties=species:S:1:pos:R:3:forces:R:3:magmoms:R:1 material_id=wbm-3-69260 energy=-56.591697692871094 stress="-0.0014683520421385765 -9.472754136652384e-09 -9.42207805110229e-08 -1.2262013626695989e-08 0.0014458007644861937 -0.0036263256333768368 -9.522022992314305e-08 -0.0036263244692236185 4.8275360313709825e-05" free_energy=-56.591697692871094 pbc="T T T"
V        0.00001743       3.81573635       1.00609505       0.00001249       0.00477713      -0.01977184       0.04538757
V        1.32003568       1.32477442       1.73988936      -0.00000766      -0.00500955       0.01933055       0.04427618
Fe       1.31995237       2.05290483      -0.53092001       0.00000855       0.01578094       0.00764862       0.64292538
Fe      -0.00000543       0.00063145       0.00051033      -0.00001137       0.00003373      -0.00005658       0.65700018
Fe       0.00010024       3.08733038       3.27632077      -0.00001258      -0.01541184      -0.00771444       0.64315259
Si       1.31987832       4.24797417      -1.16959560       0.00001639      -0.01302229       0.01625761       0.04665643
Si       0.00017754       0.89172048       3.91517259      -0.00000593       0.01285176      -0.01569393       0.04664463
