8
Lattice="4.458825674999145 -1.2173615584865874e-09 -3.020961798745575e-08 1.7828282155720813e-08 4.8898012919442 -2.823127656824988 -3.837352914629024e-08 -3.4137123797215367e-07 5.646255766086798" Properties=species:S:1:pos:R:3:forces:R:3:magmoms:R:1 material_id=wbm-1-22489 energy=-53.690250396728516 stress="-0.0015820714179426432 1.0721072030150935e-08 4.9518334321874136e-08 9.175379567238906e-09 -0.0005152495577931404 2.2953211953335995e-07 5.249125223372175e-08 2.3693408479630307e-07 -0.000515434134285897" free_energy=-53.690250396728516 pbc="T T T"
Ir       3.34412374       1.62993365       2.82312798       0.00000284      -0.00000685       0.00001287       0.01222211
Ir       1.11471076       3.25986576       0.00000490      -0.00000266       0.00001116      -0.00000946       0.01222187
Pt       1.11471098       0.82124133       1.42243439      -0.00000039       0.02409347       0.04178229       0.00778240
Pt       1.11471091       3.24731667       2.82312850      -0.00000053      -0.04822770       0.00003482       0.00778234
Pt       1.11471088       0.82124403       4.22382282       0.00000719       0.02411842      -0.04177400       0.00778234
Pt       3.34412365       4.06855860       1.40069773      -0.00000178      -0.02410376      -0.04176902       0.00778234
Pt       3.34412362       1.64248368       0.00000388      -0.00000642       0.04821828      -0.00001557       0.00778246
Pt       3.34412376       4.06855517      -1.40068813       0.00000174      -0.02410296       0.04173809       0.00778240
