12
Lattice="7.957690551306647 -1.841419462486487e-08 2.3311949506812354e-09 -3.978845292792608 6.891562202119625 -2.464510040529635e-09 2.455499553295424e-09 -1.5784684964007593e-09 8.370110774002582" Properties=species:S:1:pos:R:3:forces:R:3:magmoms:R:1 material_id=wbm-1-10532 energy=-39.77913284301758 stress="-0.0007477218750864267 1.081871037200699e-09 -1.1876504224517248e-09 5.843279748951602e-10 -0.0007477636681869626 1.6049641615722976e-09 -9.727141314641585e-10 8.413040264443339e-10 -0.00019240019901189953" free_energy=-39.77913284301758 pbc="T T T"
As      -0.00000008       4.59437461       2.09252772      -0.00000236      -0.00000474      -0.00000208       0.00898933
As       3.97884553       2.29718710       6.27758316       0.00000414      -0.00001018      -0.00000228       0.00898945
Cl      -1.88798651       5.68440433       2.09252776      -0.02938259       0.01696365       0.00000000       0.00789026
Cl       3.97884528       4.47724635       6.27758303       0.00000050       0.03393129       0.00000058       0.00789033
Cl       3.97884513       2.29718762       0.14275445      -0.00000394       0.00000376      -0.02076128       0.00376304
Cl       0.00000006       4.59437490       4.32780982      -0.00000028       0.00000414      -0.02076292       0.00376309
Cl       0.00000005       4.59437489       8.22735633      -0.00000043       0.00000443       0.02076232       0.00376314
Cl       3.97884513       2.29718763       4.04230086      -0.00000387       0.00000378       0.02076611       0.00376306
Cl       5.86683175       1.20715781       6.27758306       0.02938403      -0.01696495       0.00000026       0.00789025
Cl      -0.00000004       2.41431579       2.09252771      -0.00000009      -0.03393297      -0.00000054       0.00789025
Cl       1.88798638       5.68440427       2.09252766       0.02938578       0.01696557      -0.00000027       0.00789027
Cl       2.09085889       1.20715781       6.27758309      -0.02938088      -0.01696382      -0.00000007       0.00789016
