6
Lattice="4.836618099917532 1.1504499728890838e-07 5.953925854620687e-07 -2.418308948151616 4.188632558617643 -1.009596647749019e-06 1.9739967672954297e-06 -2.46817781948679e-06 12.164355189673175" Properties=species:S:1:pos:R:3:forces:R:3:magmoms:R:1 material_id=wbm-1-22986 energy=-18.41075325012207 stress="0.0007759225554764271 -4.74683803375342e-09 1.762742485311719e-08 -5.048978124477799e-09 0.0007758634747005999 -1.3051317804269047e-09 1.7720655165476273e-08 -1.2448458930336415e-09 0.0006740967510268092" free_energy=-18.41075325012207 pbc="T T T"
K        2.41830771       1.39621211      -0.18166208       0.00000022      -0.00000040       0.02851704       0.01362127
K        0.00000134       2.79242105       5.90051478      -0.00000026      -0.00000007       0.02851810       0.01362118
In       0.00000181      -0.00000168       8.88019755       0.00000096      -0.00000386      -0.00448663       0.01258218
In       0.00000099      -0.00000142       2.79801943      -0.00000201       0.00000309      -0.00448795       0.01258218
Sb       2.41830929       1.39621034       3.65436821       0.00000158      -0.00000243      -0.02403195       0.00016898
Sb       0.00000219       2.79241870       9.73654426      -0.00000049       0.00000368      -0.02402862       0.00016886
