6
Lattice="3.3717574577939566 3.695350738553075e-08 -1.900227644779298e-07 7.480939173708547e-08 6.380158019034569 -0.09666368288931461 -3.2950503099552535e-07 -0.0005303249131038281 6.0327034801630655" Properties=species:S:1:pos:R:3:forces:R:3:magmoms:R:1 material_id=wbm-4-33053 energy=-31.992536544799805 stress="0.0017043297411873937 2.8557863629430358e-08 2.574534789800964e-07 3.797094549895519e-08 -0.0011203731410205364 0.00010564510739641264 2.564310932484659e-07 0.00010564607509877533 -0.001193998265080154" free_energy=-31.992536544799805 pbc="T T T"
Cr       1.68588555       0.00051363       3.01643950       0.00017233       0.01885896      -0.00606505       1.89361656
S       -0.00000254       5.03181083       3.84718306      -0.00003740      -0.03095502       0.01419538       0.02608517
S        1.68586979       1.28164029       4.90971613      -0.00023682      -0.01424604       0.02077255       0.01148330
S        1.68586923       5.09981702       1.02860719      -0.00024404       0.03110932       0.01020364       0.01134017
S       -0.00000256       1.34718630       2.08885650      -0.00004706       0.01688349      -0.01376073       0.02656646
S        0.00001604      -0.00197778      -0.00237134       0.00039300      -0.02165082      -0.02534584       0.03012054
