8
Lattice="4.260081779018077 2.2904020837330067e-08 -1.7850387380482962e-07 2.290401698829577e-08 4.26008181386102 1.5870831580967695e-08 -3.656745939891603e-07 1.2417571401748923e-08 11.108945417206462" Properties=species:S:1:pos:R:3:forces:R:3:magmoms:R:1 material_id=wbm-2-37029 energy=-44.4422721862793 stress="2.497965397196822e-06 -1.017910200573624e-08 3.8179719802355905e-11 -1.2856435027686075e-08 2.4947676138253883e-06 1.0348841783525131e-08 -3.438976214908962e-09 8.972919296468262e-09 -0.0007466690149158239" free_energy=-44.4422721862793 pbc="T T T"
La       3.19506093       3.19506132       9.95854617       0.00000003      -0.00000033      -0.03666327       0.02348647
La       1.06502053       1.06502037       1.15039828      -0.00000091      -0.00000077       0.03666866       0.02348632
Cd       3.19506104       1.06502077       5.55447268       0.00000013       0.00000064       0.00000044       0.00148916
Cd       1.06502015       3.19506155       5.55447278       0.00000040      -0.00000070       0.00000080       0.00148910
Bi       1.06502037       1.06502055       7.83122103      -0.00000067      -0.00000037       0.02940276       0.01386911
Bi       3.19506096       3.19506146       3.27772495      -0.00000021       0.00000011      -0.02940580       0.01386887
O        1.06502078       3.19506094       0.00000021      -0.00000041       0.00000259      -0.00000235       0.00299805
O        3.19506135       1.06502050      -0.00000019       0.00000157      -0.00000108      -0.00000081       0.00299817
