6
Lattice="3.8416261990633402 0.0003563576232862889 -0.9712533958648105 -0.2461105170170163 3.8337338296648356 -0.9712548374940808 0.020209753697627113 0.021549601273761487 8.184056158122461" Properties=species:S:1:pos:R:3:forces:R:3:magmoms:R:1 material_id=wbm-3-71384 energy=-43.65187072753906 stress="0.0021003747824579477 -0.0003043525794055313 -0.0010535473702475429 -0.00030435677035711706 0.0020612392108887434 -0.0011232792166993022 -0.001053542597219348 -0.0011232789838686585 -0.0016655249055474997" free_energy=-43.65187072753906 pbc="T T T"
Lu       2.45278567       2.61553630       1.62146832      -0.00043778      -0.00048109       0.00128743       0.00291997
Lu       1.16293742       1.24010263       4.62007729       0.00048959       0.00052773      -0.00125892       0.00292009
Nb      -0.12305548       1.91686730      -0.48562636      -0.00000694       0.00000130       0.00000086       0.02284536
Nb       1.92081357       0.00017834      -0.48562679       0.00000823       0.00000237      -0.00000277       0.02284542
Si       0.45741564       0.48776787       1.80921402      -0.00757805      -0.00806691      -0.02706644       0.02520251
Si       3.15831190       3.36787222       4.43233524       0.00752499       0.00801662       0.02703985       0.02520251
