7
Lattice="3.9067786372993663 1.3995974059184034e-07 1.4437984503505235 1.643563341628924 5.451823221856559 1.5602588578190857 0.047684211572110245 -0.2738273333819887 5.8785526446611" Properties=species:S:1:pos:R:3:forces:R:3:magmoms:R:1 material_id=wbm-3-12121 energy=-63.15119934082031 stress="-0.00019306663307361305 -0.0003385811869520694 0.00014419361832551658 -0.00033858040114864707 -0.0012371465563774109 0.0009159619803540409 0.000144192497828044 0.0009159576147794724 -0.0005299270269460976" free_energy=-63.15119934082031 pbc="T T T"
Eu       2.52862226       0.68560035       5.17295584       0.00105349      -0.01076762      -0.00284966       6.71343136
Eu       3.06940402       4.49239579       3.70965410      -0.00105425       0.01076820       0.00285067       6.71343040
Si       1.25695288       2.18015304       2.60638892       0.00606846      -0.00758738      -0.01641601       0.01586419
Si       4.34107328       2.99784280       6.27622067      -0.00606845       0.00758591       0.01642044       0.01586413
Ru       1.95353624       3.46462828       6.72908357       0.01304228       0.01976460      -0.03528820       0.01422882
Ru       3.64448990       1.71336777       2.15352669      -0.01304085      -0.01976866       0.03527964       0.01422906
C       -0.00000003       0.00000009      -0.00000001      -0.00000068       0.00000498       0.00000313       0.00911081
