5
Lattice="3.1974211292002073 -8.328079805130051e-08 2.3100079090458436e-07 -1.905889966398585e-07 3.8888197816489734 -1.2161765405011813 4.970918912027683e-07 -0.01948383622965281 6.758899594735203" Properties=species:S:1:pos:R:3:forces:R:3:magmoms:R:1 material_id=wbm-5-11711 energy=-19.814857482910156 stress="-0.0005437181098386645 -1.7588712353244773e-07 1.0506907699436852e-07 -1.7354244619127712e-07 0.0012721745297312737 -0.0012563976924866438 1.0627076818536807e-07 -0.0012563983909785748 -0.0024294855538755655" free_energy=-19.814857482910156 pbc="T T T"
Mg       1.59871047       2.50078364       1.17024605       0.00000051       0.00491794       0.01371686       0.00566155
Mg       1.59871097       1.36855250       4.37247730      -0.00000188      -0.00491797      -0.01371622       0.00566149
Ni       0.00000054       0.75275273       2.40514595      -0.00000019      -0.01554483      -0.05012519       0.03991616
Ni      -0.00000026       3.11658304       3.13757707       0.00000151       0.01554479       0.05012451       0.03991604
Sn       0.00000004      -0.00000011      -0.00000002       0.00000016       0.00000006       0.00000001       0.01238465
