12
Lattice="4.09511239527698 -9.539764935684066e-09 2.7543518764743355e-07 -1.6294619101055963e-08 6.989393610097307 7.990811892678615e-08 5.48025979689276e-07 9.620659794748077e-08 7.810361362207491" Properties=species:S:1:pos:R:3:forces:R:3:magmoms:R:1 material_id=wbm-3-2824 energy=-52.97006607055664 stress="-0.001692335121333599 -3.4257830350270524e-08 -2.0036241110688024e-08 -3.4501319134960795e-08 -0.0014404214452952147 3.915963731060401e-08 -2.1671207051099373e-08 4.009268295135371e-08 0.002124359365552664" free_energy=-52.97006607055664 pbc="T T T"
Yb      -0.00000010       2.55662606       1.95259102       0.00000131       0.00507995      -0.00000085       0.01776731
Yb       0.00000059       4.43277032       5.85777144      -0.00000008      -0.00507526       0.00000126       0.01776740
Al      -0.00000130       0.00000111      -0.00000042       0.00000123       0.00000363      -0.00000717       0.00661981
Al       2.04755697       2.21816461       4.38994107       0.00000062       0.01260228      -0.03120022       0.00299430
Al       2.04755623       0.24667534       1.95259099       0.00000301       0.00282508      -0.00000133       0.00325012
Al      -0.00000129      -0.00000194       3.90518128       0.00000106       0.00000745       0.00000773       0.00661981
Al       2.04755709       6.74271941       5.85777157      -0.00000448      -0.00282221      -0.00000180       0.00325048
Al       2.04755701       2.21816349       7.32560077       0.00000047       0.01260934       0.03120653       0.00299454
Al       2.04755650       4.77122610       0.48476544      -0.00000060      -0.01260354      -0.03121515       0.00299442
Al       2.04755643       4.77122861       3.42041562      -0.00000117      -0.01260681       0.03121347       0.00299454
Pt       0.00000051       5.50954061       1.95258881       0.00000023      -0.02779023       0.00000393       0.01329315
Pt       0.00000145       1.47985484       5.85777112      -0.00000158       0.02777021      -0.00000650       0.01329315
