4
Lattice="4.095091279909521 -1.5381930753185307e-06 2.3642995083356215 1.36502896721163 3.8608845227175026 2.3642995242745584 -1.0514161292660154e-07 -5.482503997902124e-08 4.728599198781602" Properties=species:S:1:pos:R:3:forces:R:3:magmoms:R:1 material_id=wbm-1-18667 energy=-11.027766227722168 stress="0.001704891794361174 1.3395408871019754e-07 6.49762768034634e-08 1.3624639905174263e-07 0.0017051530303433537 3.3484703010344674e-08 6.535694296871952e-08 3.0727857591728025e-08 0.0017051623435691" free_energy=-11.027766227722168 pbc="T T T"
Cd       1.36503587       0.96521727       2.36430013       0.00000630       0.00000223      -0.00000862       0.00306505
Ga       4.09508733       2.89566173       7.09289976      -0.00000841       0.00000675       0.00000223       0.00118923
Au       0.00000479      -0.00000074      -0.00000162       0.00001123      -0.00000550       0.00000028       0.02516979
Au       2.73007404       1.93043840       4.72859908      -0.00000913      -0.00000348       0.00000612       0.02516973
