6
Lattice="4.1489283222834965 7.699489171331553e-07 3.045982921701959e-07 7.699489999216984e-07 4.148928163163252 2.1802419747252098e-07 4.7664378770938976e-07 3.248716074748312e-07 6.729675331873873" Properties=species:S:1:pos:R:3:forces:R:3:magmoms:R:1 material_id=wbm-2-48009 energy=-40.89270782470703 stress="0.0020263930782675743 1.2519504366537149e-07 1.4108550772107264e-07 1.246927894271721e-07 0.002026393311098218 5.3623376849998294e-09 1.3955308020285884e-07 5.081513432259044e-09 -0.0017499537207186222" free_energy=-40.89270782470703 pbc="T T T"
Tb       3.11169758       3.11169671       2.26924350      -0.00000055       0.00000145       0.00911345       0.02746305
Tb       1.03723198       1.03723253       4.46043285       0.00000053      -0.00000166      -0.00911362       0.02746302
Si       3.11169693       3.11169672       5.38261396       0.00000593       0.00000229      -0.01191300       0.02203941
Si       1.03723248       1.03723251       1.34706175      -0.00000523      -0.00000271       0.01191109       0.02203935
Rh       3.11169540       1.03723331       0.00000007       0.00001550       0.00000130       0.00000114       0.01033509
Rh       1.03723385       3.11169567       0.00000010      -0.00001620      -0.00000067       0.00000099       0.01033521
