10
Lattice="6.300004904002752 0.004257246391861041 -3.5368805880822896 -4.142029067254172 5.917799659220446 -0.15116595387577728 0.0029801646712362606 -0.004257037025477851 7.224927769739472" Properties=species:S:1:pos:R:3:forces:R:3:magmoms:R:1 material_id=wbm-1-15569 energy=-46.74584197998047 stress="0.001514673582278192 -0.0001719417778076604 -0.0002057650708593428 -0.00017194089014083147 0.0016400726744905114 0.00029387473477981985 -0.00020575996313709766 0.0002938728139270097 0.001745880814269185" free_energy=-46.74584197998047 pbc="T T T"
Cs       0.04422508       4.43941503      -0.07558309       0.00000409      -0.00000821      -0.00001124       0.01136416
Cs      -2.06952481       2.95677168       3.53688156      -0.00000130       0.00000238       0.00000338       0.00766429
Cs       2.11673053       1.47838527       3.61246509      -0.00000665       0.00000863       0.00001287       0.01136404
Ca       0.00000003       0.00000015       0.00000000      -0.00000025       0.00000080       0.00000387       0.01038539
F        1.49704902       4.10829604      -2.55850242      -0.00173374      -0.00475976       0.00296350       0.04643750
F        4.37255869      -0.00000030       2.55850154      -0.00506067      -0.00000444      -0.00296664       0.04643738
F        1.93042646       0.00000072       1.12954559       0.00506318      -0.00000128       0.00296038       0.04643732
F        0.66092739       1.81375984      -1.12954515       0.00173239       0.00476459      -0.00296004       0.04643750
F       -3.18741346       4.55393071       5.44739458       0.00577942      -0.00825657      -0.00987728       0.04395503
F        5.34836952       1.36386902      -1.91051370      -0.00577634       0.00825394       0.00987116       0.04395527
