7
Lattice="4.355527246330636 -1.88282414318919e-07 1.2195675139254534 1.710046940086829 5.2120527682147335 2.2801712068852003 0.02643001547059838 0.10305313732675944 8.29298728792052" Properties=species:S:1:pos:R:3:forces:R:3:magmoms:R:1 material_id=wbm-2-49114 energy=-26.30223274230957 stress="0.0012112214462831616 0.0001698459527688101 0.0004335915145929903 0.00016984638932626694 0.0008448980515822768 -0.0006066430942155421 0.00043359221308492124 -0.000606643850915134 -0.00021591430413536727" free_energy=-26.30223274230957 pbc="T T T"
Sr       1.48874104       2.67678203       3.07053495      -0.00531216      -0.00716551       0.01897182       0.00171733
Sr       4.60326330       2.63832388       8.72219114       0.00531291       0.00716672      -0.01897272       0.00171721
Tl       2.17776311       0.00000027       0.60978451       0.00000012      -0.00000012      -0.00000102       0.00931311
Tl       3.03339038       4.34147094       5.94140113      -0.00532972       0.01142616       0.01903607       0.00668836
Tl       3.05861462       0.97363287       5.85132351       0.00532889      -0.01142830      -0.01903434       0.00668848
Pt       2.26302245       4.77728197       8.69267517      -0.01059452       0.00701445       0.03783711       0.00821537
Pt       3.82898130       0.53782509       3.10005140       0.01059450      -0.00701340      -0.03783689       0.00821531
