4
Lattice="3.695872742932206 -5.3506790691204425e-08 2.1338130473174846 1.2319575340918576 3.484502186347417 2.1338130448600996 -4.95091426369174e-08 -3.5571776910465045e-08 4.267626172597975" Properties=species:S:1:pos:R:3:forces:R:3:magmoms:R:1 material_id=wbm-4-2887 energy=-30.973892211914062 stress="0.003049020655453205 2.6268857311606553e-08 -8.540563811720858e-09 2.9160808878714306e-08 0.003049143822863698 -8.947257157387867e-09 -1.0847622355925068e-08 -6.415708853069191e-09 0.0030491354409605265" free_energy=-30.973892211914062 pbc="T T T"
Ti       2.46391496       1.74225097       4.26762603      -0.00000160      -0.00000274      -0.00000300       0.02967906
Al       0.00000010      -0.00000002      -0.00000011       0.00000166      -0.00000111      -0.00000181       0.01298845
Ni       3.69587268       2.61337658       6.40143927       0.00000044       0.00000204       0.00000359       0.02613842
Os       1.23195760       0.87112562       2.13381321      -0.00000048       0.00000177       0.00000123       0.02838600
