4
Lattice="4.083447002180507 1.0681296730183086e-07 -1.824040988978483e-07 -2.041723531387762 3.855666599630416 2.041904151372154 -1.8245443035329482e-07 -0.00019367222844688113 4.08343466058344" Properties=species:S:1:pos:R:3:forces:R:3:magmoms:R:1 material_id=wbm-2-14796 energy=-28.065671920776367 stress="-0.002399665303528309 3.617911659148376e-07 -4.927558165945811e-07 3.6197965869178006e-07 -0.0019058925099670887 -2.0279875911910494e-07 -4.957728947374562e-07 -2.0294092450967582e-07 -0.0024006373714655638" free_energy=-28.065671920776367 pbc="T T T"
Zr       2.04172343       1.92768777       4.08352691       0.00001173       0.00000170      -0.00000176       0.02836734
Cu       0.00000083       1.92778486       2.04181037      -0.00000185      -0.00000118      -0.00000728       0.00506282
Pt      -0.00000035      -0.00019269       4.08342819      -0.00000113       0.00000676       0.00004074       0.01366878
Pt      -0.00000092       3.85556924       4.08362921      -0.00000871      -0.00000731      -0.00003169       0.01366878
