10
Lattice="5.535040958680667 -1.284303765953248e-07 -5.064797943253733e-09 -1.1120806346597079e-07 4.926523333790909 -2.844329338591076 -5.264463511512757e-09 -2.1296992873069267e-08 5.688658650552399" Properties=species:S:1:pos:R:3:forces:R:3:magmoms:R:1 material_id=wbm-2-6091 energy=-68.0244140625 stress="-0.0026414254680275917 6.714428479881462e-08 2.445652391713793e-08 6.803300323099393e-08 0.001743988716043532 6.032656330035024e-08 2.4911807727789892e-08 5.497812693988635e-08 0.0017440591473132372" free_energy=-68.0244140625 pbc="T T T"
K        2.76752056      -0.00000019      -0.00000040      -0.00000061      -0.00000162       0.00000263       0.04316366
K       -0.00000004      -0.00000023      -0.00000053       0.00000104      -0.00000153       0.00000205       0.03090382
B        2.76751946       1.64217390       2.84432910      -0.00000863       0.00000087      -0.00000380       0.02751853
B        2.76752165       3.28434919       0.00000067      -0.00000686       0.00000279       0.00000090       0.02751839
Ir       1.35073811       2.46326136      -1.42216450      -0.01825248      -0.00002149      -0.00002961       0.00270057
Ir       1.35073774      -0.00000011       2.84432941      -0.01830074       0.00004308      -0.00000454       0.00270057
Ir       1.35073734       2.46326139       1.42216455      -0.01824445      -0.00002784       0.00003105       0.00270045
Ir       4.18430317       0.00000170       2.84432917       0.01828849       0.00000445      -0.00002140       0.00270069
Ir       4.18430279       2.46326144      -1.42216445       0.01826535       0.00001905       0.00001031       0.00270069
Ir       4.18430319       2.46326088       1.42216490       0.01825854      -0.00001752       0.00001244       0.00270069
