5
Lattice="6.501681336105125 -0.02166662128964521 -0.03585273549954712 -0.02019282810120628 6.457972471757956 0.060435498185035554 -0.05494836936814394 0.05925074715490541 6.472598282224456" Properties=species:S:1:pos:R:3:forces:R:3:magmoms:R:1 material_id=wbm-1-21778 energy=-24.844898223876953 stress="-0.0005200754967518151 0.00013920897617936134 0.0003178571641910821 0.00013920906349085271 -0.00035435392055660486 -0.00015575024008285254 0.0003178573679178953 -0.0001557499635964632 -0.0004827023658435792" free_energy=-24.844898223876953 pbc="T T T"
Cs       0.30397813       6.36172301       6.22061874       0.02245241       0.03311460       0.01705278       0.00537337
Eu       3.15229975       3.25574795       3.25166333      -0.01800109       0.01102346       0.01953124       6.79919052
I        2.89538460       6.49227911       3.29621888       0.01672069       0.00272496      -0.03317113       0.01001620
I        6.37763032       3.36750929       3.44094880      -0.02806483      -0.02892657      -0.00112767       0.00881869
I        2.87235872       3.27954325       6.50393577       0.00689282      -0.01793646      -0.00228522       0.00923938
