7
Lattice="3.5254990358284473 2.9119265095599638e-09 5.180625225746528e-08 2.9119238137867917e-09 3.5254990806585482 3.6842242565647486e-09 1.1143168794660375e-07 7.198938653831204e-09 7.9275691456300565" Properties=species:S:1:pos:R:3:forces:R:3:magmoms:R:1 material_id=wbm-3-25526 energy=-51.46701431274414 stress="0.003094867803156376 5.024122229357886e-10 4.0128829148500245e-09 -1.6427824656162215e-09 0.0030948291532695293 -3.0852845611661905e-08 3.0052436095218127e-09 -3.171604845420006e-08 -0.0002177664719056338" free_energy=-51.46701431274414 pbc="T T T"
Fe      -0.00000063       1.76274944       1.82979226      -0.00000191       0.00000012       0.04019188       2.52805233
Fe      -0.00000046       1.76274954       6.09777733      -0.00000285      -0.00000038      -0.04018987       2.52805161
Fe       1.76274901       0.00000020       1.82979093      -0.00000337      -0.00000045       0.04019581       2.52804971
Fe       1.76274925       0.00000008       6.09777722      -0.00000280      -0.00000000      -0.04018642       2.52805138
Fe      -0.00000015      -0.00000002      -0.00000008       0.00000070      -0.00000110      -0.00000121       2.45060587
Ni       1.76274943       1.76274948       0.00000009      -0.00000179       0.00000128      -0.00000385       0.11021590
Sb       0.00000239      -0.00000007       3.96378520       0.00001201       0.00000055      -0.00000635       0.01582837
