6
Lattice="3.798898597075192 9.281971026845338e-09 -3.575789120567932e-10 1.2682872167880753e-08 4.790441588719891 -2.7657627120037596 -6.993034608967094e-10 1.7530318490868442e-07 5.5315257361005346" Properties=species:S:1:pos:R:3:forces:R:3:magmoms:R:1 material_id=wbm-2-45767 energy=-39.213600158691406 stress="-0.0018454832024872303 9.23804233110559e-09 8.276817453634067e-09 1.3080438954204965e-08 0.0023357104510068893 2.3121870640352427e-07 2.530238907283433e-09 2.3175554986210045e-07 0.0023357721511274576" free_energy=-39.213600158691406 pbc="T T T"
Lu      -0.00000002      -0.00000005      -0.00000008       0.00000001      -0.00000048       0.00000113       0.00513858
Si      -0.00000001       1.59681452       2.76576287       0.00000004       0.00000045      -0.00000004       0.00995854
Si      -0.00000004       3.19362831      -0.00000004       0.00000002       0.00000089      -0.00000260       0.00995865
Pt       1.89944931      -0.00000013       2.76576261       0.00000011      -0.00000066      -0.00000460       0.00736380
Pt       1.89944940       2.39522061      -1.38288084       0.00000023       0.00000412       0.00002441       0.00736392
Pt       1.89944928       2.39522029       1.38288153      -0.00000031      -0.00000435      -0.00001828       0.00736380
