7
Lattice="4.277186964263238 -2.0806861831299493e-07 3.8901375180786706e-07 -2.138594226698792 5.8654801858913075 -2.901629792394423 1.0831548664625838e-06 0.4710271988746167 10.460207910151833" Properties=species:S:1:pos:R:3:forces:R:3:magmoms:R:1 material_id=wbm-3-56604 energy=-29.543933868408203 stress="-0.0004207792808301747 -3.2118043780116068e-09 1.3355175632057126e-08 -3.3099303298200766e-09 0.001241651363670826 -0.00011491351324366406 1.3786061181519926e-08 -0.00011491350596770644 -0.0009165947558358312" free_energy=-29.543933868408203 pbc="T T T"
Cs       4.27674788      -0.00002422       0.00000086       0.00001478       0.00003515       0.00000427       0.00324807
Dy       2.13647681       0.23552182       5.23011736       0.03848729      -0.00005710      -0.00021894       0.05661644
Br       2.13815102       1.87776501       7.73111677       0.00017672       0.05156496      -0.01050068       0.01029789
Br      -0.00043124       4.87447454       4.97252530       0.00019239      -0.03723456      -0.00703445       0.00991672
Br      -0.00044318       4.45873201      -0.17258151       0.00017653      -0.05137799       0.01068179       0.01029909
Br       2.13816198       1.46204244       2.58607468       0.00019219       0.03712322       0.00699611       0.00991738
O        4.27849022       0.23552908       5.23010227      -0.03923984      -0.00005367       0.00007188       0.27934438
