9
Lattice="4.12725713759821 5.853026955014643e-08 -8.979173115555202e-08 1.5654219247123813e-07 5.99211468445971 -3.4595487235084486 -1.4582476431007059e-07 4.974230458368526e-07 6.919098302383338" Properties=species:S:1:pos:R:3:forces:R:3:magmoms:R:1 material_id=wbm-4-1047 energy=-52.018470764160156 stress="0.0008899038075469434 4.0355768504696243e-08 -1.92914462182614e-09 3.998463427024035e-08 -0.002532265381887555 -1.4107301993249166e-08 -1.8968435711030907e-09 -1.4221892108423617e-08 -0.0025322893634438515" free_energy=-52.018470764160156 pbc="T T T"
Ho      -0.00000053       0.00000043       3.99441186      -0.00000685      -0.00000283       0.01379505       0.00112247
Ho       0.00000029       3.45925958      -1.99720532      -0.00000660       0.01193913      -0.00691559       0.00112233
Ho      -0.00000132       2.53285333       1.46234269       0.00000800      -0.01194392      -0.00690601       0.00112236
Al       2.06362845       4.59644719       2.65376214      -0.00000114       0.00170492       0.00098985       0.00415671
Al       2.06362836       1.39566819      -0.80578805      -0.00000105      -0.00170998       0.00098322       0.00415671
Al       2.06362819      -0.00000257       1.61157622      -0.00000015      -0.00000635      -0.00197762       0.00415683
Si       2.06362962       1.99737418       3.45955239      -0.00001559       0.00002116       0.00000820       0.00284207
Si       2.06362988       3.99474369      -0.00000203       0.00002210      -0.00000568       0.00002091       0.00284204
Ir      -0.00000006       0.00000165      -0.00000143       0.00000128       0.00000358       0.00000195       0.02392578
