10
Lattice="4.742211167562044 -1.5999359331699565e-07 -3.903072217318094e-07 -2.9128374572402077e-07 6.878320681361419 -5.81047243286358e-07 -6.908495518864753e-07 -5.810472301859814e-07 6.87832028116853" Properties=species:S:1:pos:R:3:forces:R:3:magmoms:R:1 material_id=wbm-2-27765 energy=-56.697776794433594 stress="-0.00019279305706731975 1.919100967029408e-08 2.189924686035738e-08 2.069756988021254e-08 0.0016179337399080396 -1.975191565861678e-08 2.239020346905818e-08 -2.03657837261062e-08 0.0016179359517991543" free_energy=-56.697776794433594 pbc="T T T"
Ce       2.37110432       2.21202657       1.22713277       0.00001156       0.03580816      -0.03580729       0.45684189
Ce       2.37110562       5.65118616       2.21202580       0.00000221       0.03580875       0.03580868       0.45684099
Ce       2.37110349       4.66629289       5.65118486      -0.00000287      -0.03581095       0.03581169       0.45684069
Ce       2.37110410       1.22713331       4.66629311       0.00000566      -0.03580831      -0.03580850       0.45684290
Mn      -0.00000122       3.43916102       3.43915902       0.00000176      -0.00000355       0.00000250       3.91858006
Mn      -0.00000067      -0.00000002       0.00000074       0.00000162      -0.00000006      -0.00000326       3.91858101
Ga      -0.00000118       5.95967621       4.35780445       0.00000744       0.03786828      -0.03786743       0.03563845
Ga      -0.00000014       4.35780397       0.91864344      -0.00000405      -0.03786211      -0.03786513       0.03563833
Ga       0.00000138       2.52051637       5.95967703      -0.00000679       0.03786509       0.03786352       0.03563845
Ga       0.00000221       0.91864370       2.52051658      -0.00001656      -0.03786530       0.03786514       0.03563857
