8
Lattice="4.467162717038298 -1.9550832250564492e-08 6.548643297005123e-07 -1.955083370926353e-08 4.467163029424937 1.2064507413687282e-06 1.2084769000855635e-06 2.251637331123902e-06 10.27286608772025" Properties=species:S:1:pos:R:3:forces:R:3:magmoms:R:1 material_id=wbm-3-60142 energy=-29.919424057006836 stress="5.9547277487581596e-05 -7.235203547395486e-09 1.5817517962091188e-08 -6.879955272154348e-09 5.941630661254749e-05 -1.2446180974734489e-08 1.4949554483223437e-08 -1.3718116420591286e-08 0.00010931013093795627" free_energy=-29.919424057006836 pbc="T T T"
Ce      -0.00000241      -0.00000270      -0.00000294       0.00000085       0.00000054       0.00000033       1.22727251
In       2.23358322       0.00000280       6.84214898      -0.00000279      -0.00000146       0.01895377       0.00043130
In       0.00000207       2.23358470       6.84215651      -0.00000072      -0.00000521       0.01895113       0.00043130
In       2.23357912       2.23357895       1.39166490       0.00000069      -0.00000100       0.02135615       0.00056094
In       2.23358087       2.23358208       8.88120217       0.00000071       0.00000060      -0.02135235       0.00056094
In       0.00000268       2.23358582       3.43072216      -0.00000270      -0.00000764      -0.01895757       0.00043124
In       2.23358380      -0.00000082       3.43070913      -0.00000212       0.00000278      -0.01894928       0.00043112
Pd       0.00000024       0.00000304       5.13643442       0.00000613       0.00001135      -0.00000222       0.00437152
