4
Lattice="3.4833674225112556 -1.5108396473378637e-07 1.0736288575810622 1.5762287807988737 3.1063406138621117 1.0736288686662574 -0.007576323772672164 -0.004651456651481596 6.212249996159301" Properties=species:S:1:pos:R:3:forces:R:3:magmoms:R:1 material_id=wbm-2-28424 energy=-27.588150024414062 stress="0.0014003438409417868 -0.00020338266040198505 0.0010740896686911583 -0.0002033812488662079 0.0016061534406617284 0.0006596226012334228 0.0010740872239694 0.0006596291204914451 -0.001753595075570047" free_energy=-27.588150024414062 pbc="T T T"
Ca       0.00000007       0.00000005      -0.00000008       0.00000089       0.00000039      -0.00000194       0.01331240
Nd       2.52600999       1.55084439       4.17975372      -0.00000060      -0.00000024      -0.00000012       0.02403250
N        3.80614599       2.33678445       6.21405175      -0.00674747      -0.00414309       0.02188176       0.01638150
N        1.24587376       0.76490460       2.14545619       0.00674728       0.00414301      -0.02187960       0.01638162
