10
Lattice="5.866578276623694 0.024273533983074216 -0.09185669918008536 -2.874975871042229 4.058397681255038 2.9346428677973027 0.005277390997619836 -0.030239851385256627 5.770216217676171" Properties=species:S:1:pos:R:3:forces:R:3:magmoms:R:1 material_id=wbm-3-54368 energy=-92.08365631103516 stress="-0.002570952055975795 -0.0009905485203489661 0.002182271331548691 -0.0009905534097924829 0.0014856898924335837 0.0017407193081453443 0.0021822755225002766 0.0017407385166734457 0.0013480598572641611" free_energy=-92.08365631103516 pbc="T T T"
Na       2.93592749      -0.00298268       2.83917980       0.00000009      -0.00000019       0.00000090       0.01356808
Eu       3.05939823       2.12879865       5.77699975       0.01486675       0.00184686      -0.00726724       6.55621433
Eu      -0.06251853       1.92363241       2.83600383      -0.01486708      -0.00184906       0.00726072       6.55621481
W       -0.00000055       0.00000018      -0.00000006       0.00002045       0.00000150      -0.00000315       0.04243022
O       -1.93466977       4.00115902       4.65011252      -0.00973636      -0.00321547      -0.01369596       0.01332998
O        1.64837948       0.49326483       4.85059344      -0.03311813      -0.01332787       0.01701394       0.01877755
O        1.34849872       3.55916832       3.76240838       0.03311437       0.01333630      -0.01701880       0.01877761
O        4.93155016       0.05127003       3.96288873       0.00973490       0.00322736       0.01371562       0.01332986
O       -0.42073720       1.84360432       6.14151057      -0.00053927      -0.01710280      -0.00305769       0.01340020
O        3.41761899       2.20882733       2.47149233       0.00052440       0.01708390       0.00305160       0.01340026
