7
Lattice="3.6198205636516763 6.676414285039666e-08 -1.1344608595371652 -0.3555428158158939 3.6023175253863107 -1.134460929675276 0.03161291050117195 0.034886532932922945 6.443135198344817" Properties=species:S:1:pos:R:3:forces:R:3:magmoms:R:1 material_id=wbm-1-40599 energy=-43.12066650390625 stress="0.0004240139969624579 -0.00022306702157948166 -0.0006449150387197733 -0.00022306227765511721 0.00038012221921235323 -0.0007117478526197374 -0.0006449216743931174 -0.0007117431377992034 -0.0014317735331133008" free_energy=-43.12066650390625 pbc="T T T"
Yb       2.09627102       2.31335519       0.34648498       0.01172417       0.01293583       0.03739879       0.03917414
Yb       1.19961949       1.32384886       3.82772811      -0.01171815      -0.01293387      -0.03739639       0.03917372
Cu      -0.00000259      -0.00000765      -0.00003825      -0.00026803      -0.00042150      -0.00163417       0.07127285
O        1.80994019       0.00002502      -0.56714232       0.00057081       0.00044337       0.00168311       0.05728966
O        0.65410436       2.71918118       2.08710655       0.00001183       0.00001441       0.00004500       0.70618445
O       -0.17779863       1.80114137      -0.56728099      -0.00033481      -0.00006001      -0.00016645       0.05728936
O        2.64178637       0.91802307       2.08710786       0.00001404       0.00002179       0.00007004       0.70623529
