6
Lattice="4.407058595849598 8.763223520842351e-09 5.9333715182194496e-08 8.76321902183896e-09 4.407058457499283 3.292123272425972e-08 1.3956600949708788e-07 7.188352678798503e-08 7.8643599451122626" Properties=species:S:1:pos:R:3:forces:R:3:magmoms:R:1 material_id=wbm-3-75627 energy=-31.571090698242188 stress="0.0009660715004429221 8.819546759575303e-10 1.4147961024946198e-08 3.3406686306136635e-09 0.0009660310461185873 -2.1716390463666357e-08 1.4928943414815876e-08 -2.1744149591995665e-08 0.001624586060643196" free_energy=-31.571090698242188 pbc="T T T"
V        3.30529427       3.30529384       5.74671669      -0.00000008       0.00000007       0.03303088       1.25029993
V        1.10176455       1.10176461       2.11764344      -0.00000062      -0.00000029      -0.03303172       1.25029993
Bi       3.30529407       3.30529401       2.94076544      -0.00000000       0.00000093      -0.02667084       0.00116295
Bi       1.10176438       1.10176469       4.92359418      -0.00000016      -0.00000105       0.02667218       0.00116295
Bi       3.30529404       1.10176463      -0.00000032       0.00000069      -0.00000109       0.00000120       0.00773638
Bi       1.10176475       3.30529373       0.00000076       0.00000006       0.00000143      -0.00000159       0.00773638
