7
Lattice="3.7651114505703505 2.817360160482618e-07 1.395092563844968 1.4791182051808605 5.353451766417147 1.786354877816629 -0.013385865345196616 -0.003752975218579027 5.814362093131544" Properties=species:S:1:pos:R:3:forces:R:3:magmoms:R:1 material_id=wbm-4-5281 energy=-52.955745697021484 stress="0.002109112683683634 -0.0007335772970691323 0.0011837822385132313 -0.0007335739210247993 -0.0003834362141788006 0.001979672349989414 0.0011837806086987257 0.0019796681590378284 -0.0006469069048762321" free_energy=-52.955745697021484 pbc="T T T"
Dy       2.35406054       0.86171478       5.20327568       0.00960782      -0.03050568      -0.02593130       0.00768512
Dy       2.87678342       4.48798496       3.79253438      -0.00960971       0.03049962       0.02594124       0.00768518
Si       1.11578901       2.11563529       2.76691592       0.01051888       0.03218799      -0.02839683       0.01774251
Si       4.11505428       3.23406307       6.22889548      -0.01051800      -0.03218699       0.02839421       0.01774251
Ir       1.78810101       3.65206410       6.73070176      -0.00474141       0.02679742       0.01280546       0.00181019
Ir       3.44274254       1.69763571       2.26510848       0.00474205      -0.02679463      -0.01280827       0.00181031
C        0.00000054      -0.00000068       0.00000275       0.00000035       0.00000225      -0.00000449       0.02128515
