6
Lattice="4.236033106903611 -7.262695519372157e-05 2.4461054814159606 1.4122767606623545 3.993857266689328 2.4463669434046564 -4.961301123984789e-05 -6.601217550301996e-05 4.8916747534398795" Properties=species:S:1:pos:R:3:forces:R:3:magmoms:R:1 material_id=wbm-5-14487 energy=-25.13387680053711 stress="0.0004128435393795371 1.726676600810606e-05 2.0143535948591307e-05 1.7264075722778216e-05 0.0004322179302107543 2.5477560484432615e-05 2.0142077119089663e-05 2.5478959287283942e-05 0.000453688990091905" free_energy=-25.13387680053711 pbc="T T T"
Cd       0.00003290       0.00004803       0.00006704      -0.00001506      -0.00001016      -0.00012353       0.00378138
Cd       1.41204679       0.99847434       2.44603373       0.00004888       0.00005076       0.00007295       0.00383127
Ni       1.40961786       2.49690959       4.89193398       0.04613479      -0.01706356      -0.00054375       0.03093696
Ni       2.82418720       0.49655693       4.89193547       0.00068067       0.04916431      -0.00010326       0.03094697
Ni       3.53128002       2.49705142       6.11734412      -0.02387043      -0.01608514      -0.03981871       0.03096437
Ni       3.53150554       2.49715012       3.66715873      -0.02297885      -0.01605619       0.04051631       0.03094196
