12
Lattice="4.453038996570411 -1.1059875386771492e-05 -1.0262892494142726e-05 2.2266191713134704 3.856387259828761 -1.0313501796868173e-05 -2.746016078342304e-06 -1.6612588909840927e-06 6.032954655751627" Properties=species:S:1:pos:R:3:forces:R:3:magmoms:R:1 material_id=wbm-4-16277 energy=-48.130462646484375 stress="0.004496444016695023 2.104143504766398e-06 -5.70055533444247e-07 2.107986347255064e-06 0.004493795335292816 -4.1352160451424425e-07 -5.711171979783103e-07 -4.201117178581626e-07 0.005615562200546265" free_energy=-48.130462646484375 pbc="T T T"
Ho       0.00000171       0.00000131       3.01646891       0.00005708       0.00004124      -0.00010512       0.01189846
Mg       4.45309490       2.57090866       0.83275238      -0.00038436      -0.00027126      -0.02033953       0.01391530
Mg       2.22652055       1.28543657       5.20018080      -0.00037692      -0.00026490       0.02032001       0.01391643
Mn      -0.00021554      -0.00015283      -0.00003782      -0.00119093      -0.00084240      -0.00038338       1.61253881
H        5.59737739       3.23155377       4.97393323      -0.02088407      -0.01191676       0.03152468       0.02089798
H        3.30891753       3.23163526       4.97408208       0.02085385      -0.01080374       0.03308899       0.02088124
H        4.45316525       1.24966325       4.97409791       0.00100592       0.02339788       0.03328796       0.02087921
H        1.08222907       0.62481703       1.05881557       0.01970975       0.01152991      -0.03358567       0.02087140
H        3.37086766       0.62488014       1.05895173      -0.01981568       0.01270201      -0.03199561       0.02089030
H        2.22666188       2.60675449       1.05896911       0.00101911      -0.02357781      -0.03181137       0.02089250
H        4.45304958       2.57088514       2.75847547       0.00002903       0.00001681      -0.01884241       0.01575023
H        2.22660576       1.28548907       3.27445834      -0.00002290      -0.00001106       0.01884156       0.01575008
