4
Lattice="4.033679970030448 -5.1053002129505165e-08 2.328846181882972 1.3445599468990985 3.802989976363248 2.328846173184299 -1.8198420093862907e-08 -2.352187879935774e-08 4.657692395286535" Properties=species:S:1:pos:R:3:forces:R:3:magmoms:R:1 material_id=wbm-1-34196 energy=-37.804039001464844 stress="0.0017172301886603236 -2.8125793960498413e-07 1.9917098370569875e-07 -2.9187140171416104e-07 0.0017172528896480799 1.1397585808481381e-07 1.7925221129644342e-07 1.173574020185697e-07 0.0017163873417302966" free_energy=-37.804039001464844 pbc="T T T"
Tb       4.03367972       2.85224243       6.98653855       0.00000039       0.00000013      -0.00000723       0.03029343
Nb       1.34455989       0.95074764       2.32884619      -0.00000017      -0.00001108       0.00000003       0.00448978
Os       0.00000024      -0.00000001       0.00000012      -0.00000871       0.00000216       0.00000585       0.02494454
Os       2.68912000       1.90149480       4.65769228       0.00000852       0.00000884       0.00000149       0.02494454
