5
Lattice="4.709047321926554 1.979347204038214e-08 -1.6632294732888505e-07 1.979346438013188e-08 4.7090471447409925 1.9846018615754032e-10 -1.6632294329832564e-07 1.9845713722618716e-10 4.7090472046361755" Properties=species:S:1:pos:R:3:forces:R:3:magmoms:R:1 material_id=wbm-3-45540 energy=-31.876331329345703 stress="-0.0021297719795256853 7.898875509226855e-08 7.611316732436535e-08 7.880163366280613e-08 -0.0021297635976225138 -4.5274621385260616e-08 7.697433090925188e-08 -4.529923103291367e-08 -0.002129700966179371" free_energy=-31.876331329345703 pbc="T T T"
Tm       2.35452480       2.35452457       0.00000009       0.00000407       0.00001142       0.00000099       0.00203416
Tm       2.35452389       0.00000002       2.35452511       0.00000794      -0.00000209       0.00000784       0.00203380
Tm       0.00000003       2.35452352       2.35452354       0.00000211       0.00000086       0.00000590       0.00203431
Sn       0.00000007       0.00000002      -0.00000007      -0.00000107      -0.00000041      -0.00000032       0.00539136
N        2.35452198       2.35452264       2.35452189      -0.00001308      -0.00000984      -0.00001436       0.01298344
