5
Lattice="3.037060488738449 -8.177763736789955e-08 -6.007167529118909e-08 -3.023002531922423e-08 3.9097995502629512 -0.9186889162019467 -2.2050656859665774e-07 -0.39700767891902927 7.093891365475496" Properties=species:S:1:pos:R:3:forces:R:3:magmoms:R:1 material_id=wbm-5-12877 energy=-45.01832962036133 stress="-0.0018552597612142563 -2.9026843151314097e-08 4.083811333543963e-08 -2.9042567462056468e-08 0.0026285850908607244 -0.001224476844072342 4.010425413980556e-08 -0.0012244799872860312 -0.002186727477237582" free_energy=-45.01832962036133 pbc="T T T"
Ta       1.51853004       2.42593253       1.54706844       0.00000044      -0.00128947      -0.00346913       0.16602039
Ta       1.51852989       1.08685950       4.62813400       0.00000223       0.00129408       0.00346935       0.16602045
Mn      -0.00000036       0.60881603       2.59353605       0.00000116      -0.00352182      -0.02012750       0.43753111
Mn      -0.00000000       2.90397570       3.58166619      -0.00000203       0.00351785       0.02013078       0.43753076
In       0.00000035       0.00000005       0.00000018      -0.00000182      -0.00000066      -0.00000343       0.01476777
