12
Lattice="5.253115222271455 -5.89104148494334e-05 -1.2855405257879392e-07 -2.626429237876167 4.549404959303731 -2.2763870639431015e-07 -2.094813855262087e-07 -5.512546895762665e-07 8.539523728191577" Properties=species:S:1:pos:R:3:forces:R:3:magmoms:R:1 material_id=wbm-4-20981 energy=-82.30245971679688 stress="-0.002558182692155242 3.3334666227347043e-07 1.5434478140008423e-09 3.3397498100384837e-07 -0.002557816682383418 -1.9652180327511815e-08 -1.709438368635574e-09 -2.0872869654908754e-08 0.0026669225189834833" free_energy=-82.30245971679688 pbc="T T T"
Yb       2.62661211       1.51642251       8.02414268      -0.00000857       0.00000489      -0.03673445       0.02323091
Yb       0.00007436       3.03292340       3.75438067       0.00000789      -0.00000472      -0.03675065       0.02323061
Yb       2.62661161       1.51642235       4.78514303      -0.00000774       0.00000420       0.03673626       0.02323103
Yb       0.00007514       3.03292391       0.51538280       0.00000732      -0.00000365       0.03675184       0.02323067
Mn      -1.36813370       3.82289610       6.40464635       0.03218835      -0.01857695       0.00002387       2.65367365
Mn       2.62659479       3.09628618       2.13488411      -0.00011083      -0.03735292       0.00002025       2.65384936
Mn       1.25836338       0.72655814       2.13488415       0.03227512       0.01877128       0.00002187       2.65384459
Mn       1.36831862       3.82278942       6.40464616      -0.03228983      -0.01876842       0.00002392       2.65380955
Mn       0.00009236       1.45305169       6.40464507       0.00011715       0.03733778       0.00002430       2.65380764
Mn       3.99482019       0.72645533       2.13488383      -0.03217791       0.01859061       0.00002151       2.65370941
Os      -0.00000015      -0.00000171       4.26977904      -0.00000185      -0.00000073       0.00007384       0.03645933
Os       0.00000002      -0.00000012      -0.00003925       0.00000076      -0.00000142      -0.00021253       0.03645921
