9
Lattice="4.40029263742091 -6.435488157470963e-08 1.836442534736483e-08 -1.1200321659550792e-07 6.482839680407701 -3.7428701806637537 3.91756208524597e-08 -8.624829165680789e-08 7.485740229485698" Properties=species:S:1:pos:R:3:forces:R:3:magmoms:R:1 material_id=wbm-4-13248 energy=-33.76685333251953 stress="-0.00028505525551736355 -2.735529358588451e-09 1.8436870918847603e-09 -4.679765019943716e-09 -0.0009438378037884831 -5.285926718556766e-08 3.4448122132602066e-09 -5.2832803021374275e-08 -0.0009439625428058207" free_energy=-33.76685333251953 pbc="T T T"
Sr       0.00000009      -0.00000058       4.36474853       0.00000051      -0.00000049       0.02570057       0.00025702
Sr      -0.00000012       3.77998480      -2.18237709       0.00000137       0.02225392      -0.01284260       0.00025660
Sr      -0.00000016       2.70285769       1.56049677       0.00000027      -0.02225275      -0.01284720       0.00025642
Ga       2.20014780       5.04810800       2.91455192      -0.00000566       0.03208504       0.01849081       0.00028396
Ga       2.20014754       1.43471980      -0.82831431      -0.00000473      -0.03207190       0.01849592       0.00028366
Ga       2.20014659       0.00000458       1.65663750      -0.00000596       0.00000010      -0.03702366       0.00028348
Ge       2.20014614       2.16095047       3.74286932       0.00000015      -0.00000848       0.00000197       0.01147336
Ge       2.20014594       4.32188674      -0.00000216       0.00000001       0.00001234       0.00000096       0.01147354
Pd      -0.00000240       0.00000713      -0.00000038       0.00001403      -0.00001778       0.00002321       0.00802779
