6
Lattice="4.373963316260403 1.9788945052808644e-05 2.8995235751143602e-05 3.8832937523915086e-05 4.649165947514677 2.6828666429833867 3.5594836388456945e-05 3.968320744813056e-05 5.365227890216484" Properties=species:S:1:pos:R:3:forces:R:3 material_id=wbm-4-20941 energy=-43.586082458496094 stress="-0.0010521033545956016 -4.952657036483288e-06 -1.232826616615057e-05 -4.952657036483288e-06 -0.0011156740365549922 -3.6310520954430103e-06 -1.232826616615057e-05 -3.6310520954430103e-06 -0.0016331777442246675" free_energy=-43.586082458496094 pbc="T T T"
Sm       0.00000290      -0.00000708      -0.00001552       0.00004930      -0.00003234      -0.00024011
Mn       2.18698663       2.32457939       1.34146148      -0.00006330       0.00002848       0.00014383
Mn       2.18697391       0.00004533       2.68262632      -0.00016388       0.00001900       0.00003488
Mn       2.18702876       2.32460120       4.02404863       0.00002303       0.00001276       0.00006381
Pd       0.00008517       3.09943138       5.36539467       0.00011483      -0.00018081       0.00001640
Pd       0.00001644       1.54979072       2.68271695       0.00004006       0.00015287      -0.00001906
