12
Lattice="3.0048209747841508 -1.7972453739874012e-05 -0.00032808079811247635 -1.5024260443875253 2.60152397287525 0.00010201470128359804 -0.0016322134666703811 -0.00035568528000079464 14.696715686693825" Properties=species:S:1:pos:R:3:forces:R:3 material_id=wbm-1-23759 energy=-67.30379486083984 stress="0.0029840245842933655 -2.2934400476515293e-06 1.1440832167863846e-05 -2.2934400476515293e-06 0.003002460114657879 1.0444782674312592e-06 1.1440832167863846e-05 1.0444782674312592e-06 0.004615018609911203" free_energy=-67.30379486083984 pbc="T T T"
Li      -0.00304836       1.73277049       9.67665771      -0.00049274       0.00049828       0.03869364
Li       1.50556320       0.86467554       5.02099480       0.00002690      -0.00029354      -0.03982911
Li       0.00068365       0.00047969      -0.00176484       0.00048304       0.00011763       0.00009468
Li      -0.00107292       0.00013172       7.34539941       0.00019816      -0.00012088       0.00104044
Rh      -0.00056152       1.73455504       2.51897375       0.00031173       0.00027206      -0.00000513
Rh       1.50193313       0.86668315      12.17956384       0.00048425       0.00021536       0.00018723
O       -0.00058180       1.73308788      13.35029121       0.00005264       0.00040560      -0.00395292
O        1.50134109       0.86912884       1.35143288       0.00077397      -0.00075608       0.00258776
O       -0.00128730       0.00250630      11.01388165       0.00035353       0.00003059       0.01028276
O       -0.00102665      -0.00053513       3.68261661      -0.00035689       0.00077430      -0.01212993
F       -0.00072535       1.73306214       6.18987448      -0.00158002      -0.00007620      -0.04104168
F        1.49938539       0.86752209       8.50311030      -0.00025472      -0.00106712       0.04407274
