6
Lattice="3.9600932810223037 -0.00012731703240937843 -0.001668916147606894 -0.0001271400582989705 3.9414566714542474 -9.603119409252804e-05 -0.0036021297026556623 -0.00020678004827530007 8.668450069890785" Properties=species:S:1:pos:R:3:forces:R:3 material_id=wbm-5-2133 energy=-34.21310043334961 stress="0.0010173516348004341 -1.7400016076862812e-06 3.56470700353384e-05 -1.7400016076862812e-06 0.0012795116053894162 -5.0166272558271885e-06 3.56470700353384e-05 -5.0166272558271885e-06 -0.0019375678384676576" free_energy=-34.21310043334961 pbc="T T T"
Tb       2.96660327       2.95516330       6.25099553      -0.00077322      -0.00054782       0.00552302
Tb       0.99086602       0.98637297       2.41589606       0.00023232       0.00017985      -0.00586293
As       2.96941113       0.98485357      -0.00129262      -0.00143885      -0.00082184       0.00032037
As       0.98922392       2.95570453      -0.00032354      -0.00117056      -0.00064647       0.00021209
Se       2.96955608       2.95700081       3.24143585       0.00234765       0.00122702       0.01338638
Se       0.98703376       0.98447929       5.42489400       0.00080276       0.00060929      -0.01357893
