10
Lattice="6.311872160537273 -3.05638924171262e-06 -3.5482821684965224 -4.150822471386063 5.930874024972941 -0.1462733481577081 -0.00012774629964526463 -2.150348303796988e-05 7.242670575089719" Properties=species:S:1:pos:R:3:forces:R:3 material_id=wbm-1-15569 energy=-43.149070739746094 stress="0.0010046015959233046 3.5503762774169445e-06 2.1486601326614618e-05 3.5503762774169445e-06 0.0008978431578725576 3.0896044336259365e-06 2.1486601326614618e-05 3.0896044336259365e-06 0.000480354530736804" free_energy=-43.149070739746094 pbc="T T T"
Cs       0.04224482       4.44816626      -0.07281456      -0.00093904      -0.00035388       0.00080426
Cs      -2.07613222       2.96564572       3.54874054      -0.00139373       0.00037965       0.00135655
Cs       2.11761935       1.48275919       3.62165817      -0.00086449      -0.00034309       0.00100334
Ca      -0.00057237      -0.00003578       0.00040483      -0.00097201      -0.00044045       0.00087958
F        1.49254498       4.09777464      -2.55409061       0.01156737       0.03867736      -0.02753638
F        4.36216000      -0.00112966       2.55202331       0.03799638      -0.00128561       0.01636698
F        1.95248254       0.00195917       1.14133536      -0.03237956       0.00222732      -0.02155458
F        0.66776022       1.83337100      -1.14079793      -0.01274562      -0.03594824       0.02315535
F       -3.20506254       4.57975040       5.47951444      -0.00530829       0.01248350       0.01549160
F        5.36611811       1.34971067      -1.93171192       0.00503896      -0.01539654      -0.00996694
