4
Lattice="4.029678588787138 -1.828206107662731e-06 8.737846133236728e-06 -2.014836725956762 3.969728322953389 2.0154946262092497 8.73794017565407e-06 5.448242450610571e-06 4.030242569266346" Properties=species:S:1:pos:R:3:forces:R:3 material_id=wbm-2-14796 energy=-27.81838607788086 stress="0.0003993238788098097 -2.8265640139579773e-07 -9.088951628655195e-06 -2.8265640139579773e-07 0.00043387245386838913 -8.482078555971384e-06 -9.088951628655195e-06 -8.482078555971384e-06 -2.3296510335057974e-05" free_energy=-27.81838607788086 pbc="T T T"
Zr       2.01485191       1.98486376       4.03043281       0.00001410      -0.00005511      -0.00004325
Cu       0.00000629       1.98486445       2.01530715       0.00004511       0.00004500      -0.00010513
Pt       0.00000334       0.00001374       4.03020152       0.00003510       0.00006658       0.00006938
Pt       0.00000474       3.96972558       4.03066731      -0.00009424      -0.00005648       0.00007895
