8
Lattice="4.418322991409861 0.00012895082577957744 0.00018508511520325197 0.00012897331948529396 4.417121331099423 -5.296461558817017e-05 0.0004164686386844597 -0.00012042607107065971 10.121745105807594" Properties=species:S:1:pos:R:3:forces:R:3 material_id=wbm-2-37029 energy=-42.59345626831055 stress="0.0004422554047778249 -6.5828789956867695e-06 -9.1983238235116e-06 -6.5828789956867695e-06 0.0003779982216656208 -3.8746511563658714e-06 -9.1983238235116e-06 -3.8746511563658714e-06 -0.0019454504363238811" free_energy=-42.59345626831055 pbc="T T T"
La       3.31677764       3.31108538       9.07630769       0.00062407       0.00011450       0.01134522
La       1.10469255       1.10269237       1.05329893       0.00002593      -0.00055971      -0.01122354
Cd       3.31383313       1.10371980       5.05952801      -0.00011669      -0.00029188      -0.00055409
Cd       1.10474213       3.31243232       5.05995736      -0.00029453      -0.00017118      -0.00032898
Bi       1.10588455       1.10663050       7.13636269       0.00148536       0.00053547       0.00616201
Bi       3.31125612       3.31570750       2.98138848      -0.00125868       0.00081810      -0.00609651
O        1.10438058       3.31247240      -0.00057104      -0.00015237      -0.00027979       0.00035622
O        3.31349056       1.10389957      -0.00050840      -0.00031311      -0.00016549       0.00033943
