12
Lattice="5.205941428066699 0.004074734418416101 0.013415904198561528 0.004642594519284644 6.214981201830736 0.003648206696057346 0.024033829981788147 0.005134958574124818 8.172945350262362" Properties=species:S:1:pos:R:3:forces:R:3 material_id=wbm-3-60173 energy=-58.28266906738281 stress="0.0012197823962196708 -2.182793105021119e-05 -5.139061249792576e-05 -2.182793105021119e-05 -0.0020041163079440594 6.8310764618217945e-06 -5.139061249792576e-05 6.8310764618217945e-06 0.0009158856701105833" free_energy=-58.28266906738281 pbc="T T T"
Tb       3.91239396       3.11207132       2.05525833       0.00047782       0.00065472       0.00012666
Tb       1.32332629       6.21936478       6.13592502       0.00031773       0.00060612      -0.00001955
Tb       3.90963255       0.00409825       2.05385890       0.00012617       0.00064909      -0.00007978
Tb       1.32127808       3.11225387       6.13480175       0.00041463       0.00072482       0.00009835
In       1.30995203       1.55978898       3.35472272      -0.00192506      -0.00183621      -0.01722745
In       1.31121652       4.66048859       0.74294497       0.00280655       0.00212962       0.01290172
In       3.92487793       1.56380542       7.44828267      -0.00204211      -0.00183643      -0.01694680
In       3.92607760       4.66441354       4.83664244       0.00269845       0.00203156       0.01336713
Pd       1.29814478       1.55348748       0.58870124      -0.00621699      -0.00173503      -0.02645051
Pd       3.93636723       4.67104596       7.60023093       0.00482464       0.00022365       0.03007905
Pd       3.91339957       1.55781744       4.68244427      -0.00613661      -0.00161696      -0.02631268
Pd       1.32110350       4.66650357       3.50627682       0.00465493       0.00000503       0.03046424
