7
Lattice="3.7796081250498528 6.0335112658903424e-05 1.4036383584652117 1.4863626086263972 5.3574784054250495 1.7933349357322401 -0.0008523814164613029 -0.00017004890684535633 5.8159318633498716" Properties=species:S:1:pos:R:3:forces:R:3 material_id=wbm-4-5281 energy=-53.058837890625 stress="-9.244651300832629e-05 -1.0461080819368362e-06 3.444385947659612e-05 -1.0461080819368362e-06 -0.0006103999330662191 3.840017598122358e-06 3.444385947659612e-05 3.840017598122358e-06 -0.0005000205710530281" free_energy=-53.058837890625 pbc="T T T"
Dy       2.38039030       0.83896448       5.19210937       0.00418139      -0.00317778      -0.01065784
Dy       2.88626419       4.51606553       3.82143815      -0.00584418      -0.00029450       0.01157502
Si       1.13432004       2.17487807       2.74112803      -0.00416661       0.00441885       0.00744280
Si       4.12883696       3.18348178       6.27283671       0.00463850      -0.00537463      -0.00675882
Ir       1.81598866       3.68331281       6.71135151      -0.00741535       0.03442349       0.02187495
Ir       3.44751703       1.67328598       2.30213115       0.00682045      -0.03191636      -0.02172938
C        0.00203784       0.00211741      -0.00227363       0.00178565       0.00192096      -0.00174654
