6
Lattice="3.5357088782106763 -1.4179886430262386e-05 -0.0008297796902357365 -1.4167407277037443e-05 3.5292028223729 -0.0002306344924551881 -0.001895425867159108 -0.0005259810810950439 8.238006746165023" Properties=species:S:1:pos:R:3:forces:R:3 material_id=wbm-1-55710 energy=-39.214378356933594 stress="0.0007421912159770727 4.5285560190677643e-07 6.721762474626303e-06 4.5285560190677643e-07 0.0007930828724056482 1.7734128050506115e-06 6.721762474626303e-06 1.7734128050506115e-06 -0.0028579169884324074" free_energy=-39.214378356933594 pbc="T T T"
Sc       2.64951393       2.64528791       5.86545011      -0.00148510      -0.00142982       0.01011677
Sc       0.88329963       0.88437646       2.37163269       0.00093657       0.00038413      -0.00492854
Si       2.65247069       0.88182775      -0.00166417       0.00041674      -0.00090849       0.00081456
Si       0.88469367       2.64646352      -0.00135069       0.00043551      -0.00084093       0.00094872
S        0.88321394       0.88065443       5.14414333      -0.00050440       0.00193214      -0.01301933
S        2.65010143       2.64790388       3.09462098       0.00020073       0.00086299       0.00606796
