5
Lattice="4.292392669545418 1.5431596563050578e-05 0.7913393526761988 2.072785166502096 3.759272484526959 0.7916413127507282 0.0001842800768076523 -0.00019621739392282667 11.968895219466472" Properties=species:S:1:pos:R:3:forces:R:3 material_id=wbm-2-47446 energy=-23.84248161315918 stress="-0.0001317795249633491 -2.25467374548316e-06 6.504415068775415e-06 -2.25467374548316e-06 -0.00011035974603146315 6.452668458223343e-06 6.504415068775415e-06 6.452668458223343e-06 5.7848868891596794e-05" free_energy=-23.84248161315918 pbc="T T T"
Pr       3.94704977       2.33112110       2.66395915       0.00646847       0.00437208      -0.02424814
Pr       2.42026429       1.42900542      10.88848614      -0.00476218      -0.00545490       0.02463223
Si      -0.00020822       0.00009786      11.96844561      -0.00042591       0.00015177       0.00082632
I        1.43998060       0.85014843       4.19645856       0.00916532       0.00683901      -0.04589083
I        4.92382843       2.90761813       9.35527519      -0.01044568      -0.00590795       0.04468047
