6
Lattice="3.746948649191624 -5.807011297293449e-05 -0.0003079989983683721 0.0001555736598357765 4.861144852797659 -2.7923422648026537 -0.0004620967865184267 -0.0002096950789355102 5.584321458710476" Properties=species:S:1:pos:R:3:forces:R:3 material_id=wbm-2-45767 energy=-39.15216064453125 stress="0.000694603193551302 1.252046786248684e-06 -1.286040060222149e-06 1.252046786248684e-06 0.0013859112514182925 8.357514161616564e-06 -1.286040060222149e-06 8.357514161616564e-06 0.002055916003882885" free_energy=-39.15216064453125 pbc="T T T"
Lu       0.00002367       0.00004603       0.00001004       0.00005864       0.00039081      -0.00006938
Si      -0.00028659       1.62024258       2.79209733      -0.00000738      -0.00017788       0.00010295
Si      -0.00007439       3.24068319      -0.00011286      -0.00023229       0.00031528       0.00005631
Pt       1.87324219      -0.00016442       2.79202828      -0.00002574       0.00000935      -0.00012825
Pt       1.87357456       2.43052980      -1.39631186       0.00010559      -0.00027169       0.00002700
Pt       1.87333048       2.43044602       1.39578541       0.00010121      -0.00026588       0.00001122
