4
Lattice="4.4657837137 0.0 2.5783214323 1.4885945681000001 4.2103812655 2.57832143 0.0 0.0 5.15664286" Properties=species:S:1:pos:R:3:forces:R:3 material_id=wbm-3-42131 energy=-19.535593032836914 stress="-0.00040698261000216007 2.0561274141073227e-06 -3.24595021083951e-06 2.0561274141073227e-06 -0.00041966201388277113 -1.216074451804161e-06 -3.24595021083951e-06 -1.216074451804161e-06 -0.00042053908691741526" free_energy=-19.535593032836914 pbc="T T T"
Mn       4.46578371       3.15778595       7.73496429       0.00003486      -0.00015326      -0.00000455
Ge       1.48859457       1.05259532       2.57832143      -0.00007593       0.00003629       0.00003111
Pb       2.97718914       2.10519063       5.15664286       0.00006664       0.00002734      -0.00005786
Pb       0.00000000       0.00000000       0.00000000      -0.00002557       0.00008963       0.00003145
