6
Lattice="4.1826982222950475 -9.271940631227176e-05 -0.003097785155455764 0.002065788359942518 5.162247628414169 -2.817920515730745 -0.004359101368564994 -0.0002943188013701148 5.635280144319605" Properties=species:S:1:pos:R:3:forces:R:3 material_id=wbm-4-16842 energy=-38.00013732910156 stress="-0.0005885749123990536 -7.337599527090788e-06 -1.97248300537467e-06 -7.337599527090788e-06 -0.0005079528782516718 -7.704715244472027e-06 -1.97248300537467e-06 -7.704715244472027e-06 0.002324253786355257" free_energy=-38.00013732910156 pbc="T T T"
Sm       0.00002663      -0.00004443      -0.00064846       0.00010000      -0.00008614      -0.00004475
In      -0.00000415       3.46561549       0.00197433      -0.00009770       0.00314742       0.00011277
In      -0.00186872       1.69608018       2.81757545      -0.00017361      -0.00341955       0.00006473
Ir       2.08996552       2.58100286       1.40635089       0.00013805       0.00034968      -0.00018510
Ir       2.09218891       2.58106424      -1.41082641       0.00011391      -0.00002419       0.00003295
Ir       2.08915249       0.00004920       2.81564678      -0.00008072       0.00003279       0.00001935
