4
Lattice="4.142728090325175 -1.8678889416767598e-05 2.390193538073666 1.380740119407916 3.905021692357818 2.3903241862395515 0.00010411409771857276 -4.014304617701732e-05 4.779811601638961" Properties=species:S:1:pos:R:3:forces:R:3 material_id=wbm-3-15536 energy=-28.586938858032227 stress="-0.002150811953470111 1.6989652067422867e-06 1.0379590094089508e-06 1.6989652067422867e-06 -0.002212043385952711 1.7203274182975292e-06 1.0379590094089508e-06 1.7203274182975292e-06 -0.0021561719477176666" free_energy=-28.586938858032227 pbc="T T T"
Tb       1.38095276       0.97621011       2.39007139      -0.00004620      -0.00009181       0.00000353
Eu       4.14265432       2.92873084       7.17025941       0.00000133       0.00017518       0.00000634
Co       5.52337219       3.90493302       4.78065643       0.00004901      -0.00010483       0.00003241
Co       2.76184742       1.95257333       4.78002448      -0.00000406       0.00002144      -0.00004228
