12
Lattice="7.9563710382234225 -1.3141016901092444e-05 -0.00017117661361075933 -3.9781969007928684 6.8903657623390675 6.147309832438753e-05 -0.00018025496181753518 -2.9322631236426246e-05 8.378668169428217" Properties=species:S:1:pos:R:3:forces:R:3 material_id=wbm-1-10532 energy=-32.989524841308594 stress="-2.1242245566099882e-05 1.59040791913867e-06 -1.375854481011629e-06 1.59040791913867e-06 -2.1912914235144854e-05 -2.3026950657367706e-07 -1.375854481011629e-06 -2.3026950657367706e-07 -0.00015588401583954692" free_energy=-32.989524841308594 pbc="T T T"
As      -0.00042756       4.59355324       2.09441571      -0.00071212      -0.00127973       0.00114281
As       3.97753196       2.29642235       6.28366142      -0.00032274      -0.00277426       0.00123788
Cl      -1.88601235       5.68201796       2.09559221       0.00389535      -0.00243806      -0.00018631
Cl       3.97824199       4.47272393       6.28479227      -0.00014952      -0.00359623       0.00088302
Cl       3.97777616       2.29790233       0.16026966       0.00137600       0.00453479      -0.00816660
Cl      -0.00089194       4.59384339       4.34954930      -0.00031110       0.00080690      -0.00706680
Cl       0.00145389       4.59407589       8.21686163       0.00048282      -0.00200453       0.00615205
Cl       3.97868398       2.29789162       4.02692780      -0.00120648       0.00210601       0.00611615
Cl       5.86437891       1.20852291       6.28409369      -0.00712452       0.00264362      -0.00013445
Cl       0.00075291       2.41598874       2.09530359       0.00159693       0.00291215      -0.00005573
Cl       1.88454399       5.68113584       2.09536372      -0.00345969      -0.00151968      -0.00049163
Cl       2.09193139       1.20786156       6.28451981       0.00593514       0.00060908       0.00056957
