5
Lattice="3.1824657811997072 -0.00014318034900661855 -0.0005699256834082714 4.3553403214499605e-05 3.896475003106655 -1.2112706528079742 -0.0012322922996552555 -0.0003677295716947901 6.792515329497424" Properties=species:S:1:pos:R:3:forces:R:3 material_id=wbm-5-11711 energy=-19.662498474121094 stress="-0.0009365259320475161 -6.484333425760269e-08 8.475850336253643e-06 -6.484333425760269e-08 -0.000672086956910789 -4.790781531482935e-06 8.475850336253643e-06 -4.790781531482935e-06 -0.0009958927985280752" free_energy=-19.662498474121094 pbc="T T T"
Mg       1.59198606       2.50610420       1.16691208      -0.00035936       0.00806616       0.02519773
Mg       1.58923760       1.38976651       4.41163679      -0.00055237      -0.01123678      -0.02248869
Ni      -0.00158583       0.75902896       2.40952496      -0.00011328      -0.00066509      -0.00837076
Ni       0.00091334       3.13705712       3.17436040       0.00172694       0.00234275       0.00488896
Sn      -0.00046286       0.00011457      -0.00051482      -0.00070186       0.00149296       0.00077271
