7
Lattice="3.6129220461855294 0.00026117680693651246 -1.160146949232998 -0.3553732479434714 3.605447123357074 -1.1625945509068094 0.004292633261597678 0.0004240421160626622 6.499549080064122" Properties=species:S:1:pos:R:3:forces:R:3 material_id=wbm-1-40599 energy=-40.43152618408203 stress="0.0009786360897123814 -1.9619183149188757e-05 -0.00011491926852613688 -1.9619183149188757e-05 0.0006486601196229458 -1.3763608876615763e-05 -0.00011491926852613688 -1.3763608876615763e-05 -0.0041201733984053135" free_energy=-40.43152618408203 pbc="T T T"
Yb       2.08097882       2.30514534       0.33996306      -0.00946609      -0.01032935      -0.01761110
Yb       1.17794208       1.30154200       3.83555599       0.01029672       0.01249886       0.02306682
Cu       0.00033723      -0.00056750      -0.00033685       0.00014596      -0.00138906      -0.00135733
O        1.80700647      -0.00008754      -0.57899580       0.00047293      -0.00124686      -0.00039976
O        0.64245876       2.70171398       2.08888041       0.00465657      -0.00455060       0.00033135
O       -0.17696099       1.80308808      -0.58097442       0.00013357      -0.00088375      -0.00073067
O        2.62069492       0.90428447       2.08815204      -0.00623966       0.00590078      -0.00329961
