6
Lattice="4.222523510411191 -1.5975728228946623e-06 2.4380985720335584 1.407832192829462 3.9810958536330197 2.4383717702537298 5.464529418072852e-06 -1.1541400241771571e-05 4.8755675936001905" Properties=species:S:1:pos:R:3:forces:R:3 material_id=wbm-5-14487 energy=-25.052364349365234 stress="-0.0027192491106688976 -7.924390956759453e-07 2.1379091776907444e-06 -7.924390956759453e-07 -0.002714498434215784 1.6360427252948284e-06 2.1379091776907444e-06 1.6360427252948284e-06 -0.002656922210007906" free_energy=-25.052364349365234 pbc="T T T"
Cd       0.00000469      -0.00001455      -0.00046060      -0.00022833       0.00011015      -0.00029429
Cd       1.40740187       0.99521714       2.43727357      -0.00009318       0.00005761      -0.00023986
Ni       1.40658971       2.48919254       4.87662231       0.00135530      -0.00038904       0.00017005
Ni       2.81519032       0.49656722       4.87586495       0.00008691       0.00104729       0.00000015
Ni       3.51966233       2.48809158       6.09652858      -0.00048229      -0.00046086      -0.00076100
Ni       3.51954820       2.48870466       3.65639800      -0.00063853      -0.00036517       0.00112506
