12
Lattice="4.334077062510127 0.00018673000836176085 0.0007633887647300207 0.0002988486017693471 6.966733973652395 0.00010704206148022764 0.0013229676117956658 0.0001157797438708816 7.542917545934896" Properties=species:S:1:pos:R:3:forces:R:3 material_id=wbm-3-20567 energy=-53.24790954589844 stress="-0.0008222754113376141 1.1504162102937698e-06 3.8318103179335594e-05 1.1504162102937698e-06 -0.000495567568577826 9.707699064165354e-06 3.8318103179335594e-05 9.707699064165354e-06 -0.00015938648721203208" free_energy=-53.24790954589844 pbc="T T T"
Dy       3.25314248       3.45536138       1.63494124       0.00080868      -0.03890349      -0.01828739
Dy       1.08364125       0.02489715       5.40728108      -0.00065680       0.03823926      -0.02488477
Dy       3.24963846       6.93922760       2.13892500      -0.00098311      -0.04263238       0.02129890
Dy       1.08335495       3.51044318       5.90760510      -0.00049891       0.03784683       0.01722010
Ga       1.08364048       1.41850423       0.66019315      -0.00086623       0.02113842      -0.00649965
Ga       3.25289618       2.06826784       4.43049504      -0.00221463      -0.02296584      -0.00694184
Ga       1.08398933       4.89896486       3.10980462       0.00188210       0.02512975       0.01252015
Ga       3.25200643       5.55038281       6.88567903      -0.00189826      -0.02176741       0.00754991
Cu       1.08318443       5.55637098       0.61516104      -0.00074335      -0.01573670       0.02555869
Cu       3.25221930       1.41983933       6.92803707       0.00215304       0.01402162      -0.02879811
Cu       1.08659471       2.06293274       3.15796065       0.00083660      -0.01389655      -0.03086095
Cu       3.24988522       4.89702676       4.38664464       0.00218089       0.01952647       0.03212529
