4
Lattice="4.109703716481095 -5.2544081535912046e-05 2.3714315681102436 1.3698596881054503 3.874659292300042 2.371417725723125 -1.1917935416081028e-05 -2.5370366854187957e-05 4.742883732863558" Properties=species:S:1:pos:R:3:forces:R:3 material_id=wbm-1-18667 energy=-10.986923217773438 stress="0.0016128545394167304 2.3508910089731216e-06 8.581089787185192e-06 2.3508910089731216e-06 0.0016488762339577079 3.0841329135000706e-06 8.581089787185192e-06 3.0841329135000706e-06 0.0016791281523182988" free_energy=-10.986923217773438 pbc="T T T"
Cd       1.36992045       0.96864004       2.37140913       0.00012199       0.00003881       0.00003246
Ga       4.10964735       2.90597822       7.11429729       0.00004659       0.00013245      -0.00010745
Au       0.00000368      -0.00004558      -0.00000624      -0.00011103      -0.00006063       0.00005186
Au       2.73977766       1.93729163       4.74289936      -0.00005752      -0.00011063       0.00002317
