7
Lattice="3.5581580442241876 8.261149985054552e-07 1.6681960549856528e-05 8.261238465283152e-07 3.5582759371974055 1.140215063796616e-06 3.597220144920787e-05 2.458787683514622e-06 7.670827509538197" Properties=species:S:1:pos:R:3:forces:R:3 material_id=wbm-3-25526 energy=-51.660884857177734 stress="-0.001572736189700663 2.132728695869446e-06 -9.859795682132244e-07 2.132728695869446e-06 -0.001653673592954874 -2.707471139729023e-06 -9.859795682132244e-07 -2.707471139729023e-06 -0.0023435568436980247" free_energy=-51.660884857177734 pbc="T T T"
Fe      -0.00041393       1.77937197       1.81366835      -0.00269204      -0.00065138      -0.03404329
Fe       0.00075787       1.77936151       5.85728400       0.00216971       0.00179605       0.03654440
Fe       1.77867823      -0.00005540       1.81394743      -0.00258517       0.00039589      -0.03286250
Fe       1.77967034       0.00039059       5.85714781       0.00232048       0.00047303       0.03547986
Fe      -0.00020087      -0.00025462      -0.00004274       0.00028263      -0.00062472      -0.00175776
Ni       1.77894676       1.77887038      -0.00015743       0.00032088      -0.00069748      -0.00185931
Sb      -0.00011015      -0.00026313       3.83524808       0.00018362      -0.00069136      -0.00150150
