10
Lattice="6.247863743003578 0.00020645345832673266 3.5832579030118765 2.8521007793358386 6.243011896754013 2.265436587091536 0.0017060492324702354 0.00020934705141312587 7.229604394456096" Properties=species:S:1:pos:R:3:forces:R:3 material_id=wbm-1-49436 energy=-40.02953338623047 stress="-0.0005549401976168156 -2.5987974368035793e-06 5.47594390809536e-06 -2.5987974368035793e-06 -0.0004576349165290594 2.0372099243104458e-06 5.47594390809536e-06 2.0372099243104458e-06 -0.0005458706291392446" free_energy=-40.02953338623047 pbc="T T T"
Tl       2.14834157       4.70773678       3.48874364       0.00773516       0.02165454      -0.01474381
Tl       0.70296102       1.53712862       6.00769007      -0.00975511      -0.02147661       0.01650776
As       5.12967894       2.06253390       5.53307966      -0.01263080       0.02659469       0.02367785
As       3.97428968       4.18300408       7.54714625       0.01509634      -0.02464935      -0.02114394
S        0.86578289       1.30432205       2.14420646      -0.03087047      -0.01083734      -0.03002264
S        5.14785009       4.93217104       9.16113990      -0.03494686       0.00765283      -0.00850061
S        5.11100995       4.35382589       5.56232700      -0.00115670      -0.00191470      -0.00009985
S        3.98606395       1.89161064       7.51163599      -0.00147999       0.00094730      -0.00486390
S        8.23678725       4.93370860      10.93426092       0.02845351       0.01248079       0.03251871
S        3.95772373       1.31089043       3.91800659       0.03955489      -0.01045221       0.00667033
