10
Lattice="5.526745769187198 3.8206378354721935e-05 6.17359702379898e-05 2.2857731430218957e-06 4.914911342557056 -2.8527846105143184 6.337597149774622e-05 -7.563729949061165e-05 5.705438232304355" Properties=species:S:1:pos:R:3:forces:R:3 material_id=wbm-2-6091 energy=-67.20352172851562 stress="0.001485558575950563 2.970336936414242e-07 -8.677598088979721e-07 2.970336936414242e-07 0.0014854049077257514 3.5276752896606922e-06 -8.677598088979721e-07 3.5276752896606922e-06 -8.84334440343082e-05" free_energy=-67.20352172851562 pbc="T T T"
K        2.76359477       0.00003465      -0.00008661      -0.00011800       0.00004033       0.00006212
K        0.00020769       0.00000513      -0.00011876      -0.00010104      -0.00021191       0.00009390
B        2.76363843       1.63834550       2.85257490      -0.00009086      -0.00015346      -0.00004146
B        2.76359179       3.27660548      -0.00020633       0.00010636      -0.00016382       0.00006173
Ir       1.33222776       2.45786763      -1.42755531       0.00097332       0.00048334      -0.00011161
Ir       1.33058243      -0.00024298       2.85564680       0.00092794       0.00011662      -0.00019429
Ir       1.33381638       2.45777810       1.42676143       0.00153568       0.00032797      -0.00007842
Ir       4.19697728       0.00051940       2.85260339      -0.00077523       0.00011933       0.00022375
Ir       4.19348419       2.45777081      -1.42632195      -0.00104780      -0.00038613       0.00023638
Ir       4.19243219       2.45599533       1.42494118      -0.00141040      -0.00017225      -0.00025235
