12
Lattice="5.740195696015624 2.6509942997621104e-05 1.898823354787903e-05 2.656776290419016e-05 5.753727924327177 5.2972001943407465e-06 3.259566798067896e-05 5.301589120581722e-06 5.779944372497308" Properties=species:S:1:pos:R:3:forces:R:3 material_id=wbm-2-39104 energy=-55.041526794433594 stress="-0.0016019560862332582 -1.4185789041221142e-06 -8.366245310753584e-06 -1.4185789041221142e-06 -0.0016062515787780285 -1.885811798274517e-06 -8.366245310753584e-06 -1.885811798274517e-06 -0.0016041359631344676" free_energy=-55.041526794433594 pbc="T T T"
Cu       2.90154460       2.89009217       1.46081374       0.00124417       0.00452456       0.01917752
Cu       2.89635236       0.01249401       4.32402994      -0.00411475       0.00525254      -0.01826489
Cu       0.02986571       5.74809401       1.46351838      -0.00456494      -0.00299940       0.02181815
Cu       0.02899241       2.86806466       4.32131174      -0.00514273      -0.00177645      -0.01556495
P        2.28266067       5.13983154       2.12007823      -0.01278900      -0.00606996       0.00123101
P        5.16380080       3.49432776       2.10681819      -0.01605675       0.00995670      -0.00163710
P        2.27814360       2.25969895       3.66422495      -0.01434848      -0.01215713      -0.00257876
P        5.15519962       0.62110938       3.67363416      -0.01661185       0.01421363       0.00778794
S        3.46717874       0.54333161       0.88062379       0.02103944       0.00892975      -0.02534301
S        0.59938103       2.32501517       0.87347870       0.02315533      -0.02273039      -0.02875975
S        0.59462064       5.19883436       4.89740475       0.01410370      -0.00654918       0.02059256
S        3.46430725       3.42163329       4.89385692       0.01408556       0.00940534       0.02154118
