6
Lattice="3.478420462561114 1.7773015234881493e-05 0.0001162450933767892 1.777466475786317e-05 3.478294413921449 9.715507000412406e-06 0.0003411975898127739 2.8456712515257725e-05 10.225333961379055" Properties=species:S:1:pos:R:3:forces:R:3 material_id=wbm-4-37363 energy=-44.862060546875 stress="-0.00016320700524374843 -8.139759302139282e-07 -1.2522970791906118e-05 -8.139759302139282e-07 -0.00019751949002966285 -4.6765198931097984e-06 -1.2522970791906118e-05 -4.6765198931097984e-06 -0.0015646228566765785" free_energy=-44.862060546875 pbc="T T T"
Tb      -0.00013401      -0.00016681       0.00022901       0.00010680      -0.00044568       0.00070522
Tb       0.00105705       0.00096818       6.88809276       0.00045728      -0.00052524      -0.01548725
Tb       0.00123286      -0.00026909       3.33496013      -0.00022634      -0.00233402       0.01729189
Os       1.73886255       1.73982955       8.54231774       0.00119913       0.00166387       0.03987274
Os       1.73835367       1.73815722       1.68509718      -0.00181255       0.00189749      -0.04305092
Pt       1.73913821       1.73902036       5.11282700       0.00027562      -0.00025643       0.00066846
