9
Lattice="4.208699113247568 1.4694241463257568e-06 8.783211509766011e-06 -5.117570507640952e-06 5.980677999635263 -3.4530215486830156 1.4411006613596325e-05 1.337124369051944e-06 6.9060454071598345" Properties=species:S:1:pos:R:3:forces:R:3 material_id=wbm-4-1047 energy=-52.18755340576172 stress="0.001769414753653109 -6.353948265314102e-07 1.9354629330337048e-06 -6.353948265314102e-07 0.0016902430215850472 5.122274160385132e-07 1.9354629330337048e-06 5.122274160385132e-07 0.0017621364677324891" free_energy=-52.18755340576172 pbc="T T T"
Ho       0.00048734       0.00029845       4.03263607       0.00120479       0.00125286       0.01353921
Ho       0.00051315       3.49494253      -2.01736332       0.00140583       0.01218612      -0.00749679
Ho       0.00067632       2.48258461       1.43278850       0.00112537      -0.01965081      -0.01362833
Al       2.10435160       4.58761817       2.64905720       0.00064877      -0.01548892      -0.00987962
Al       2.10356525       1.39309058      -0.80342353      -0.00186925       0.01509315      -0.00793443
Al       2.10389187       0.00065399       1.61100408      -0.00066396       0.00180938       0.02296072
Si       2.10421415       1.99386162       3.45346001      -0.00039557       0.00068281       0.00097668
Si       2.10411195       3.98755605       0.00039746      -0.00080181       0.00099207       0.00062390
Ir      -0.00003599       0.00143568       0.00053707      -0.00065411       0.00312330       0.00083880
