12
Lattice="6.37309626680291 -1.8839055745130334e-06 -2.3428371471373843e-05 -1.8839017507256233e-06 6.372923142850357 -4.449479064484429e-06 -2.342838333349832e-05 -4.449478600074013e-06 6.372815559939595" Properties=species:S:1:pos:R:3:forces:R:3 material_id=wbm-1-46378 energy=-74.19172668457031 stress="0.0022058910690248013 -5.950569175183773e-07 6.140500772744417e-06 -5.950569175183773e-07 0.002242055721580982 9.97388269752264e-07 6.140500772744417e-06 9.97388269752264e-07 0.0022566812112927437" free_energy=-74.19172668457031 pbc="T T T"
Sr       3.94445089       2.42897583       5.61504199      -0.00032204       0.00289970       0.00146550
Sr       2.42914590       5.61508716       3.94448760       0.00258517       0.00121127       0.00102196
Sr       0.75827667       0.75832503       0.75764886       0.00074260       0.00117843      -0.00087770
Sr       5.61525144       3.94502344       2.42739984       0.00123635       0.00153345      -0.00388311
P        1.02456536       2.16124929       4.21016983      -0.00954031       0.00799957      -0.00581320
P        4.21087773       1.02505799       2.15989063      -0.00540802      -0.00325928       0.00559433
P        2.16292425       4.21082717       1.02373906       0.00997023      -0.00894701      -0.00943003
P        5.34876075       5.34996534       5.34824928       0.01207528       0.01085913       0.01045025
Ru       3.77848797       5.78137308       0.59424682       0.01286082      -0.01213871       0.01522005
Ru       0.59235821       3.77842181       5.78213939       0.01008090       0.01018731      -0.00920293
Ru       2.59147338       2.59210675       2.59447004      -0.02283536      -0.02114355      -0.01646945
Ru       5.78185316       0.59108795       3.77924272      -0.01144555       0.00961967       0.01192402
