12
Lattice="3.843137120086247 9.015539167699662e-05 -1.0121722435157412 0.00020156060197317027 6.19673424801909 0.00021430961356532383 0.0016682851848287801 0.0002700732199654385 7.79031088201589" Properties=species:S:1:pos:R:3:forces:R:3 material_id=wbm-4-12109 energy=-89.87834930419922 stress="0.0007150317542254925 -1.8014106899499893e-06 1.2240430805832148e-05 -1.8014106899499893e-06 0.0007715359097346663 -3.901019226759672e-06 1.2240430805832148e-05 -3.901019226759672e-06 0.0024606171064078808" free_energy=-89.87834930419922 pbc="T T T"
La       0.45001659       4.65139816       1.71574682       0.00566153      -0.00113559       0.02104752
La       3.38964795       1.55517204       5.05896576      -0.00534293       0.00170453      -0.01391575
Fe       1.92343454       3.09343636      -0.50683968      -0.00023921      -0.00153165      -0.00048244
Fe       1.92336660      -0.00275565      -0.50329953      -0.00026391      -0.00131503       0.00006299
Fe       2.58341517       0.38974692       2.00311985       0.00370149      -0.03386706      -0.00003749
Fe       1.26038636       5.80309259       4.76656388      -0.00384915       0.02121417      -0.00755756
Fe       1.25960237       3.48249014       4.77459485      -0.00214441      -0.01816217      -0.00250609
Fe       2.58619658       2.70643437       2.01393374       0.00487384       0.03709058       0.00408388
Fe       0.26598793       1.54805941       1.03533351       0.00164847      -0.00341973       0.00224213
Fe       3.57779130       4.64667212       5.74159937      -0.00120704      -0.00207540      -0.00095302
Co       0.87568692       1.55278990       3.31227529      -0.00569859       0.00119416      -0.02505003
Co       2.97274034       4.65739326       3.46770574       0.00286006       0.00030323       0.02306561
