9
Lattice="4.598883291122861 -1.4972568389109771e-06 -0.0003230710445555023 0.00025430593699840977 6.326443386352887 -3.6186790070848356 -0.0005127336488830914 0.00012929539770487953 7.237581860966839" Properties=species:S:1:pos:R:3:forces:R:3 material_id=wbm-4-13248 energy=-33.438655853271484 stress="0.00014429225120693445 1.634238287806511e-06 -3.8695870898664e-06 1.634238287806511e-06 0.00012575986329466105 -1.67149119079113e-06 -3.8695870898664e-06 -1.67149119079113e-06 0.0006673607276752591" free_energy=-33.438655853271484 pbc="T T T"
Sr      -0.00322274       0.00215484       4.20164075       0.00006217       0.00146651       0.01555561
Sr       0.00131867       3.67901041      -2.10306283       0.00153573       0.02240125      -0.01323355
Sr       0.00056626       2.64841523       1.51498794       0.00224221      -0.02640761      -0.01774666
Ga       2.29945452       4.88498276       2.78692081      -0.00032605       0.00009230      -0.00161814
Ga       2.30165798       1.44069506      -0.83111617       0.00062221       0.00092762      -0.00171756
Ga       2.30325550      -0.00156348       1.65595478      -0.00047199      -0.00042204       0.00625814
Ge       2.29733629       2.10877402       3.62221807      -0.00119710       0.00032761       0.00421741
Ge       2.29756169       4.21789097       0.00355076      -0.00116456       0.00097505       0.00418616
Pd      -0.00149524      -0.00064550       0.00480686      -0.00130261       0.00063936       0.00409869
