9
Lattice="3.8081758553492517 0.0001960177358307987 0.001450874134007749 -0.0010242306395569214 6.0903314745693455 -3.545679335020761 0.0026734105146164404 0.00026537166634579894 7.091818315246385" Properties=species:S:1:pos:R:3:forces:R:3 material_id=wbm-3-75894 energy=-55.26947784423828 stress="0.002232395112514496 -7.11705069988966e-06 -5.138391861692071e-05 -7.11705069988966e-06 0.0010203095152974129 -6.3864863477647305e-06 -5.138391861692071e-05 -6.3864863477647305e-06 -0.0014748437097296119" free_energy=-55.26947784423828 pbc="T T T"
V        0.00239660       0.00407324       4.24987761       0.00012862       0.00028913       0.00217334
V       -0.00282259       3.65662592      -2.12110870       0.00024223       0.00061617       0.00289177
V        0.00113273       2.43538849       1.42471008       0.00103645      -0.00081929       0.00302056
Sn       1.90448082       1.64508435      -0.96274299      -0.00208650       0.01732866      -0.01697951
Sn       1.90654853       0.00019215       1.91524442      -0.00013220       0.00180229       0.01987674
Sn       1.90629940       4.44331797       2.58209930      -0.00015871      -0.01967840      -0.01845338
Pd       1.90449891       2.02927163       3.54910740       0.00020706      -0.00021536       0.00278640
Pd      -0.00043817      -0.00084829       0.00140030       0.00040080       0.00013873       0.00218481
Pd       1.90329091       4.05917512       0.00345672       0.00036224       0.00053807       0.00249912
