11
Lattice="4.379195578400815 0.000239752626041673 1.8958341390887334 1.7556246430307827 4.550005726938453 1.9060373124955732 0.0014527370175628366 0.00026325384087112487 5.819583837920542" Properties=species:S:1:pos:R:3:forces:R:3 material_id=wbm-3-8387 energy=-82.06806945800781 stress="-0.00031267397571355104 -5.761394277215004e-07 3.3589720260351896e-05 -5.761394277215004e-07 -0.0002850532182492316 3.97098483517766e-06 3.3589720260351896e-05 3.97098483517766e-06 0.00040693546179682016" free_energy=-82.06806945800781 pbc="T T T"
Ta       2.64364057       3.83057307       5.78190146      -0.01218072      -0.02378462       0.02139875
Ta       3.48941950       0.72360698       3.83301671       0.01617801       0.02913467      -0.02641703
Ni       1.19230321       1.26245932       6.04941602       0.00022179      -0.00509758      -0.00078215
Ni       4.94245322       3.28527581       3.57261519      -0.00134867       0.00103379       0.00156971
Ni       0.88000615       2.27274028       3.86410521       0.00012308      -0.00357791       0.00038224
Ni       3.38903466       1.27692810       6.97779845      -0.00069855      -0.00570358      -0.00278727
Ni       2.74283648       3.27468373       2.64694662       0.00066758       0.00246557       0.00404020
B        1.77835113       0.08165632       1.90797719      -0.00282220       0.01843377       0.00143111
B        4.36450445       4.46995365       7.71135195       0.00143212      -0.01352883      -0.00059918
B        4.51068516       2.86151036       7.40567154      -0.00951024      -0.00541225       0.01959900
B        1.62666894       1.68829055       2.21928674       0.00793787       0.00603696      -0.01783567
