7
Lattice="4.474548665235165 -0.002616796216314519 -0.009346563940921088 -2.2353089259463976 6.995990240002364 -2.745492233328219 -0.020446458866576492 -0.004193616180635648 8.870870308493027" Properties=species:S:1:pos:R:3:forces:R:3 material_id=wbm-3-56604 energy=-26.859968185424805 stress="0.0002764092059805989 -8.379574865102768e-07 7.370952516794205e-06 -8.379574865102768e-07 0.0002997402334585786 -1.6210251487791538e-06 7.370952516794205e-06 -1.6210251487791538e-06 0.0012565621873363853" free_energy=-26.859968185424805 pbc="T T T"
Cs       4.47368260      -0.00496799      -0.00827304       0.00138938       0.00028947      -0.00060687
Dy       2.22318463      -0.00107296       4.43384800      -0.00068575       0.00059465      -0.00036667
Br       2.22733418       1.90331730       6.47197078      -0.00223884       0.01788488       0.01130966
Br      -0.03103258       5.07581610       3.71253044      -0.00825170      -0.01712036       0.02017128
Br      -0.00065033       5.08875041      -0.35509556       0.00514680      -0.01676614      -0.00898721
Br       2.24781245       1.90989384       2.39755607       0.00499898       0.01480877      -0.02131399
O        4.46003975      -0.00411080       4.42702789      -0.00035888       0.00030873      -0.00020624
