7
Lattice="4.290650937591788 0.0001968071725560998 1.1999719380952885 1.6984730012406923 5.2989624499421115 2.194831232055456 0.0044867651724984714 0.0007220525394651558 8.23659755861984" Properties=species:S:1:pos:R:3:forces:R:3 material_id=wbm-2-49114 energy=-26.211585998535156 stress="0.0010266110766679049 -2.879940439015627e-06 -1.0027200914919376e-05 -2.879940439015627e-06 0.0011050525354221463 -4.145200364291668e-06 -1.0027200914919376e-05 -4.145200364291668e-06 0.0009113828418776393" free_energy=-26.211585998535156 pbc="T T T"
Sr       1.48402075       2.63822830       2.95800791      -0.00138111       0.03901948       0.01064638
Sr       4.50718905       2.65813155       8.67786797       0.00053328      -0.03467920      -0.00890182
Tl       2.14647778      -0.00183340       0.60045680      -0.00038200      -0.00232526       0.00027852
Tl       2.97794189       4.30634493       5.89467992       0.00369441       0.01770672      -0.01128111
Tl       3.01616238       0.99439228       5.73396870      -0.00295870      -0.01964907       0.00903071
Pt       2.19020504       4.86926212       8.67763262      -0.00345665      -0.03489136       0.01144521
Pt       3.80416071       0.43521656       2.95157425       0.00395079       0.03481870      -0.01121793
