6
Lattice="3.3635911320464897 3.328654372302404e-07 1.5956958627878536e-05 3.32869011935601e-07 3.3637109467921786 3.956808395330307e-06 4.92740877593055e-05 1.2218030454993483e-05 10.392117037994378" Properties=species:S:1:pos:R:3:forces:R:3 material_id=wbm-3-48152 energy=-28.768720626831055 stress="0.0024677985347807407 2.075103111565113e-07 -5.176349077373743e-06 2.075103111565113e-07 0.002404805738478899 -2.401240635663271e-06 -5.176349077373743e-06 -2.401240635663271e-06 0.001861949567683041" free_energy=-28.768720626831055 pbc="T T T"
Tm      -0.00014222       0.00017476       0.00017469      -0.00078691       0.00076561       0.00079690
Tm       0.00043597      -0.00054926       7.11666037       0.00143294      -0.00205445      -0.00227992
Tm      -0.00002409      -0.00025050       3.27617554       0.00011105      -0.00072927       0.00581455
Zn       1.68165846       1.68204168       5.19624893      -0.00082061       0.00072806       0.00073662
Ni       1.68145227       1.68211697       8.67970579      -0.00137525       0.00044708       0.02868132
Ni       1.68212998       1.68206382       1.71135714       0.00143870       0.00084299      -0.03374958
