7
Lattice="3.7816907815754486 3.0610009573480334e-05 0.0004738024725761986 3.060967549812485e-05 3.781992548107536 8.683325285700408e-05 0.0009161613808804828 0.00016797962388383973 7.26721406238968" Properties=species:S:1:pos:R:3:forces:R:3 material_id=wbm-3-20255 energy=-25.809768676757812 stress="0.0013430205872282386 2.211483661085367e-06 1.8725404515862465e-07 2.211483661085367e-06 0.0013615634525194764 -3.842869773507118e-06 1.8725404515862465e-07 -3.842869773507118e-06 0.0006652843439951539" free_energy=-25.809768676757812 pbc="T T T"
Zn       1.89109714       1.89092234      -0.00066026      -0.00071768      -0.00086651      -0.00416134
Cu      -0.00100581       1.89134737       1.74561610       0.00066461       0.00019906       0.03637391
Cu       0.00196831       1.88993794       5.52340847      -0.00135416       0.00117225      -0.03287329
Cu       1.89125492       0.00070880       1.74359972       0.00129260       0.00093157       0.04227893
Cu       1.89043228       0.00035965       5.52496470       0.00157361       0.00035319      -0.03368320
Cu       0.00048152       0.00017451      -0.00069562      -0.00082978      -0.00083499      -0.00420802
Sb       0.00064416       0.00000408       3.63264295      -0.00062927      -0.00095456      -0.00372675
