6
Lattice="3.8600911079405895 3.001242861847276e-05 -0.9756202074760147 -0.24768396617301605 3.853356241447751 -0.9758711398665715 0.0005433047777721217 5.038797956311203e-05 8.14272745833093" Properties=species:S:1:pos:R:3:forces:R:3 material_id=wbm-3-71384 energy=-43.90176010131836 stress="0.0008184813195839524 -3.6929850466549397e-06 -8.225440979003906e-06 -3.6929850466549397e-06 0.0007756208069622517 1.4815013855695724e-06 -8.225440979003906e-06 1.4815013855695724e-06 0.000809738296084106" free_energy=-43.90176010131836 pbc="T T T"
Lu       2.43309950       2.59598507       1.50774195       0.00247068       0.00250986       0.01643534
Lu       1.18032547       1.25819842       4.68787435      -0.00343137      -0.00202131      -0.01361265
Nb      -0.12415136       1.92697367      -0.48849965       0.00020774      -0.00018754      -0.00108887
Nb       1.92974517       0.00019843      -0.48833291       0.00004937      -0.00011913      -0.00124073
Si       0.45507303       0.48614130       1.80185652       0.00736491       0.00617498       0.02771669
Si       3.15801263       3.36606951       4.38608627      -0.00666121      -0.00635683      -0.02820963
