9
Lattice="3.5363956254364384 1.8458341798138863e-05 1.1801385110748905 1.766582102672503 5.56790004905978 0.59002097395195 0.0002523765409700702 -2.4665900670705484e-06 5.861576431663733" Properties=species:S:1:pos:R:3:forces:R:3 material_id=wbm-4-7551 energy=-62.14655685424805 stress="-0.0007415603031404316 -4.803645424544811e-06 3.047927748411894e-06 -4.803645424544811e-06 -0.0005720351473428309 2.9302318580448627e-06 3.047927748411894e-06 2.9302318580448627e-06 -0.00010978791397064924" free_energy=-62.14655685424805 pbc="T T T"
Y       -0.00002566      -0.00101702      -0.00205913      -0.00074185      -0.00206852       0.00196536
Co       4.20666124       5.57134544       5.04275302      -0.00514027      -0.00166297       0.01443070
Co       1.09507856      -0.00095669       2.59426268       0.00667636      -0.00114078      -0.01579692
Co       3.53545562       3.44971246       7.04197860      -0.00118592       0.01429457       0.00273933
Co       2.38304255       3.62504886       4.61441068       0.01297371      -0.03411551      -0.03565833
Co       1.15302522       3.61794442       2.43000623      -0.01239166      -0.02379478       0.02867078
Co       0.61617751       1.94743466       4.01824128       0.01187652       0.03428778      -0.03712804
Co       2.91802067       1.94569987       3.02583645      -0.01301950       0.03297755       0.03929911
Co       1.76908909       2.11643369       0.58137540       0.00095268      -0.01877738       0.00147803
