9
Lattice="3.9551096494499403 -4.748987942411487e-06 -2.108630028155318e-05 1.151270325828914e-05 6.128253721473984 -3.5377413509865794 -3.773018902275699e-05 -9.141510488441311e-06 7.073199327173772" Properties=species:S:1:pos:R:3:forces:R:3 material_id=wbm-4-1834 energy=-26.321714401245117 stress="-0.0013626526342704892 -2.3865140974521637e-07 -1.9641011022031307e-06 -2.3865140974521637e-07 -0.001358864246867597 1.6585108824074268e-06 -1.9641011022031307e-06 1.6585108824074268e-06 -0.001146554248407483" free_energy=-26.321714401245117 pbc="T T T"
Al      -0.00015263       6.12843704      -1.73785878      -0.00044158       0.00005178      -0.00044833
Al      -0.00063552       4.57015509       2.63685201      -0.00017675       0.00114114       0.00036120
Al       0.00024306       1.55748555       6.17421662       0.00013919      -0.00093102       0.00043967
Cd       1.97785635       6.12772801       0.65311666       0.00001347      -0.00005313      -0.00416221
Cd       1.97771219       2.49604001       1.43986811       0.00007741       0.00246042       0.00111287
Cd       1.97818737       3.63420478       4.97496082       0.00054698      -0.00288324       0.00194760
Au       1.97738363      -0.00036091       0.00013878       0.00007013       0.00007721       0.00029294
Au      -0.00025714       2.04230204       3.53645766      -0.00014988       0.00003101       0.00033778
Au      -0.00024912       4.08511760      -0.00056425      -0.00007895       0.00010580       0.00011834
