10
Lattice="5.850450988970717 4.713537050749455e-05 -0.09708452015664429 -2.885551795418354 4.095432596968768 2.9800584385442788 0.0011343752113838594 0.00011212366815231743 5.813198353677015" Properties=species:S:1:pos:R:3:forces:R:3 material_id=wbm-3-54368 energy=-83.4684066772461 stress="-0.0008194434340111911 5.3969561122357845e-06 3.1954492442309856e-05 5.3969561122357845e-06 -0.0005775023018941283 6.998481694608927e-06 3.1954492442309856e-05 6.998481694608927e-06 0.0002818198408931494" free_energy=-83.4684066772461 pbc="T T T"
Na       2.92704134      -0.00036487       2.85709511       0.00097066      -0.00049013      -0.00116952
Eu       3.02654701       2.16319292       5.85805672       0.00276485       0.00328094       0.00056908
Eu      -0.05764566       1.93329045       2.83908257      -0.00129199      -0.00518742      -0.00491334
W        0.00092641      -0.00016514      -0.00069868       0.00096833      -0.00022912      -0.00115123
O       -1.95725398       4.04242910       4.70656258      -0.00655766       0.01097848      -0.03808634
O        1.64374338       0.51645160       4.87805674      -0.02225348       0.01725844       0.03542979
O        1.32167943       3.57901948       3.81866245       0.01670820      -0.01168464      -0.02532831
O        4.92276550       0.05495183       3.98909027       0.00861438      -0.01420939       0.03832098
O       -0.43722955       1.87215003       6.20379502       0.02218697      -0.04004099      -0.01550510
O        3.39935315       2.22149165       2.49304324      -0.02211030       0.04032378       0.01183409
