7
Lattice="3.201189120376599 0.00021734916613711089 0.0010859577272347818 -1.6018763872638688 4.427023343530018 -3.31579158215819 0.0026632659255788026 0.0002864775337920454 6.225919470407325" Properties=species:S:1:pos:R:3:forces:R:3 material_id=wbm-3-69260 energy=-55.20994567871094 stress="0.002971888054162264 -4.9086520448327065e-05 -0.00037826847983524203 -4.9086520448327065e-05 -0.002044899854809046 -3.873923560604453e-05 -0.00037826847983524203 -3.873923560604453e-05 0.0010739959543570876" free_energy=-55.20994567871094 pbc="T T T"
V       -0.00068841       3.13621532       0.82779010      -0.00356990      -0.01669744       0.04188449
V        1.60797915       1.29757558       2.08910225      -0.00007707       0.01849270      -0.04051667
Fe       1.60155434       1.55188888      -0.75356693       0.00095568       0.01024514       0.02439918
Fe      -0.00160443      -0.00160227      -0.00159636       0.00029018      -0.00406705      -0.00200111
Fe      -0.00257614       2.87172747       3.66206165       0.00278374      -0.01319973      -0.02265985
Si       1.59848976       3.74472646      -1.13195673      -0.00028766       0.00169116       0.02214065
Si       0.00277373       0.68205006       4.04180757      -0.00009511       0.00353523      -0.02324669
