12
Lattice="5.365381239351721 0.00022295930126422803 -0.003104172434663881 -2.6823143459438175 4.6503734558718435 0.0020740235324518195 -0.005235768751957813 0.0010312988952760978 8.445113858482511" Properties=species:S:1:pos:R:3:forces:R:3 material_id=wbm-4-20981 energy=-81.6464614868164 stress="-0.0023830016143620014 -2.457411028444767e-06 1.467106631025672e-05 -2.457411028444767e-06 -0.0025008630473166704 -7.423805072903633e-06 1.467106631025672e-05 -7.423805072903633e-06 0.0010584364645183086" free_energy=-81.6464614868164 pbc="T T T"
Yb       2.67599422       1.54932325       7.97694510      -0.00111650      -0.00166314       0.00172438
Yb       0.00542379       3.09872573       3.75432775      -0.00320832      -0.00026375       0.00075428
Yb       2.67908877       1.54570126       4.69058265       0.00070172      -0.00167383      -0.00355457
Yb       0.00369734       3.10011190       0.46990800       0.00012283      -0.00032748      -0.00295408
Mn      -1.39962022       3.90126833       6.33196398       0.00072578       0.00262997       0.00383841
Mn       2.67871067       3.16535679       2.10748041      -0.00026468       0.00230532       0.00126831
Mn       1.29221725       0.75052643       2.10920532       0.00007779      -0.00230609       0.00350972
Mn       1.38389711       3.90355497       6.33061063       0.00069574       0.00045097       0.00022143
Mn      -0.01058233       1.49722514       6.33336204       0.00116654       0.00027257       0.00044978
Mn       4.06325742       0.74818514       2.10679899       0.00136425       0.00047289      -0.00006768
Os       0.00593873      -0.00065707       4.22699806      -0.00008979       0.00007634      -0.00265510
Os       0.00851493      -0.00066751       0.00479241      -0.00017557       0.00002626      -0.00253560
