3
Lattice="3.5822957869282623 0.00016584289347254622 0.0003168692413100738 0.00030655381879749773 3.2796763715601123 2.0157494602958694 0.00030889590182653544 -0.0007702185782948861 4.032831083823153" Properties=species:S:1:pos:R:3:forces:R:3 material_id=wbm-4-29752 energy=-27.658355712890625 stress="0.0006184236845001578 5.547830369323492e-06 -6.955524440854788e-06 5.547830369323492e-06 0.0007657362148165703 7.420021574944258e-06 -6.955524440854788e-06 7.420021574944258e-06 -0.0026956931687891483" free_energy=-27.658355712890625 pbc="T T T"
Ta      -0.00087528       0.01453608      -0.00123217      -0.00000363       0.04031150      -0.00207590
P        1.79046854       2.15201050       4.03304452      -0.00164223      -0.04357010       0.00144963
Ir       1.79331797       1.11252542       2.01708505       0.00164586       0.00325860       0.00062632
