12
Lattice="4.07202571526218 -9.081401289155395e-07 1.3378856852924898e-06 -1.5534263564731356e-06 6.9653279604590175 8.174835195353587e-07 2.6117799885289725e-06 9.328666550988658e-07 7.947978072998644" Properties=species:S:1:pos:R:3:forces:R:3 material_id=wbm-3-2824 energy=-52.69548416137695 stress="-1.1683383490890265e-05 -8.810893632471561e-07 1.8891296349465847e-06 -8.810893632471561e-07 7.525959517806768e-06 2.8195208869874477e-06 1.8891296349465847e-06 2.8195208869874477e-06 -0.00014317897148430347" free_energy=-52.69548416137695 pbc="T T T"
Yb      -0.00027153       2.68012971       1.98808558      -0.00120172      -0.02395725       0.00306560
Yb      -0.00031684       4.28766725       5.96099781      -0.00084327       0.03505665       0.00146434
Al       0.00006907       0.00033804      -0.00024375      -0.00043595       0.00064951      -0.00117300
Al       2.03604676       2.13575103       4.46840624      -0.00041657      -0.00143204      -0.00583211
Al       2.03576902       0.37049779       1.98729692       0.00148002      -0.02362833       0.00130440
Al       0.00005671       0.00020404       3.97418512      -0.00054127       0.00034741      -0.00001287
Al       2.03560676       6.59490437       5.96282133      -0.00018084       0.01645467       0.00285181
Al       2.03587511       2.13642516       7.45272325       0.00060208      -0.00328124       0.00294233
Al       2.03614629       4.82858072       0.49327257       0.00157172       0.00042332      -0.00406942
Al       2.03601316       4.82582990       3.48020916       0.00150820      -0.00048144       0.00228505
Pt       0.00292463       5.56583411       1.98721224       0.00000726      -0.00081487      -0.00095205
Pt      -0.00183539       1.40048007       5.95892097      -0.00154966       0.00066360      -0.00187392
