6
Lattice="3.3596385670041076 1.365552800108001e-06 2.9264073157071226e-06 2.4972303918020667e-06 6.344298460246317 -0.09346358862417997 5.106691642746095e-06 5.275984598018755e-06 5.86295518880149" Properties=species:S:1:pos:R:3:forces:R:3 material_id=wbm-4-33053 energy=-30.057294845581055 stress="-0.0015658428892493248 -6.454647518694401e-07 -3.5384437069296837e-06 -6.454647518694401e-07 -0.0016140153165906668 -2.6759225875139236e-06 -3.5384437069296837e-06 -2.6759225875139236e-06 -0.0018417304381728172" free_energy=-30.057294845581055 pbc="T T T"
Cr       1.67964694      -0.00018942       2.93152568      -0.00158212      -0.00100036      -0.00011408
S        0.00092653       5.02080657       3.80083520       0.00581905       0.01039544       0.03316071
S        1.67946146       1.34426869       4.83114559      -0.00184859      -0.00925074       0.00826235
S        1.67975520       4.99984377       0.93813772      -0.00007995       0.01054840      -0.01000501
S       -0.00011156       1.32416958       1.96877072      -0.00081427      -0.00884827      -0.03109245
S       -0.00020296      -0.00028704       0.00005029      -0.00149417      -0.00184448      -0.00021147
