9
Lattice="3.5967174476648545 -3.1196333525820105e-05 -0.00043519254698184577 0.0004090311735396541 6.687390116381681 -3.8369970459815796 -0.0009341780394194605 -1.8819302663750715e-05 7.673961263425998" Properties=species:S:1:pos:R:3:forces:R:3 material_id=wbm-2-44635 energy=-38.61863327026367 stress="0.0012811814667657018 1.8079299479722977e-07 -8.18184344097972e-06 1.8079299479722977e-07 0.0013394529232755303 -1.2199743650853634e-06 -8.18184344097972e-06 -1.2199743650853634e-06 0.002162208780646324" free_energy=-38.61863327026367 pbc="T T T"
Sc       1.79982916       4.21015647      -2.41871012      -0.00289847       0.03138695      -0.02083378
Sc       1.79710743       0.00286774       4.83489195       0.00184373       0.00155672       0.04206717
Sc       1.80114632       2.47881618       1.42013063       0.00238928      -0.03279274      -0.02195724
Zn       1.79772484      -0.00169061      -0.00114607      -0.00145409      -0.00069820      -0.00048278
Zn      -0.00065212       4.45640356      -0.00068519      -0.00160554      -0.00071934      -0.00060885
Zn      -0.00112513       2.22725616       3.83617453      -0.00152058      -0.00043383      -0.00040295
Sn      -0.00115505      -0.00094567       2.25239111       0.00056548       0.00104223      -0.00352738
Sn      -0.00167089       4.72928807       2.71365849       0.00095305       0.00246155       0.00176212
Sn       0.00065490       1.95989961      -1.12668305       0.00172721      -0.00180332       0.00398359
