11
Lattice="5.676703311086234 -0.00033445011504047245 -0.378267505545835 -0.4473566213223767 5.02007076588456 -1.5758088200023808 -0.005001412131515654 -0.000616408603638933 5.291761922518317" Properties=species:S:1:pos:R:3:forces:R:3 material_id=wbm-3-55690 energy=-92.54169464111328 stress="-0.0031051072292029858 1.2030184734612703e-05 4.652386996895075e-05 1.2030184734612703e-05 -0.0030599255114793777 3.261258825659752e-06 4.652386996895075e-05 3.261258825659752e-06 -0.002384069375693798" free_energy=-92.54169464111328 pbc="T T T"
Ta      -0.14190025       1.56019216       3.16351215       0.00138062       0.00146876      -0.00171896
Ta      -0.30939262       3.45757688       0.55457470       0.00096299      -0.00166513       0.00637454
Fe       2.95705108       3.66464274       2.48279365       0.01131868       0.00976747       0.00836118
Fe       2.27022733       1.35085264       0.84068951      -0.01548812      -0.01070598      -0.00647614
O        4.19885069       4.85737488       1.26465364      -0.02094303      -0.00050059       0.02391099
O        4.36994212       2.92703338       3.88442145      -0.02379944       0.01363760      -0.00768102
O        1.01076158       2.76973929       1.97170600       0.02077594      -0.02620142      -0.01923122
O        2.84289202      -0.00654743      -0.18883399       0.00154310       0.00043027       0.00164809
O        4.21327874       2.24495597       1.36392051      -0.01485213       0.02883078       0.02061782
O        0.85879304       2.10046006      -0.54173073       0.01576887      -0.01725122       0.00148974
O        1.01287091       0.16948620       2.08185484       0.02333262       0.00218941      -0.02729536
