12
Lattice="4.431817365109393 4.889226326005595e-05 0.00011364110640493053 2.2160597534596165 3.8381918703139815 6.892140123992231e-05 0.0001655623144201121 2.5419098383282158e-05 6.000103348404772" Properties=species:S:1:pos:R:3:forces:R:3 material_id=wbm-4-16277 energy=-47.95328903198242 stress="0.0011271039256826043 -4.517030902206898e-06 1.3207842130213976e-05 -4.517030902206898e-06 0.0011388048296794295 3.807828761637211e-06 1.3207842130213976e-05 3.807828761637211e-06 0.002080736216157675" free_energy=-47.95328903198242 pbc="T T T"
Ho       0.00041588      -0.00522781       2.99929641       0.00006899      -0.00222056      -0.00090392
Mg       4.42688768       2.56030523       0.82529504       0.00023372      -0.00208438      -0.00253309
Mg       2.20660615       1.27746738       5.17647360       0.00060276      -0.00221963       0.00207416
Mn      -0.00038427      -0.00456297       0.00044327       0.00021272      -0.00158259       0.00077271
H        5.58209321       3.22762840       4.92487244      -0.01040112      -0.00577803       0.02120601
H        3.28414520       3.22346050       4.92279891       0.00863646      -0.00678983       0.01851429
H        4.42985955       1.23941413       4.93725548      -0.00385737       0.02238843       0.03543197
H        1.07073125       0.61649890       1.06753385       0.01478590       0.00673690      -0.02336295
H        3.37088723       0.61654666       1.07453141      -0.01284557       0.00882182      -0.02255763
H        2.22249980       2.60219892       1.07112308       0.00227936      -0.01547154      -0.01922793
H        4.43209498       2.56732722       2.75908967       0.00065631      -0.00122421       0.00131113
H        2.21445955       1.27028706       3.24276792      -0.00037194      -0.00057643      -0.01072480
