8
Lattice="4.739382504078266 8.281888248939193e-05 0.00034496143017221937 8.282417038707137e-05 4.73818791563458 -0.0001319508325501321 0.0006644823789830781 -0.00025430788290490636 9.252892734516355" Properties=species:S:1:pos:R:3:forces:R:3 material_id=wbm-3-60142 energy=-29.70103645324707 stress="0.0018929546931758523 -2.1828454919159412e-06 -1.3012962881475687e-05 -2.1828454919159412e-06 0.0018445533933117986 4.811910912394524e-06 -1.3012962881475687e-05 4.811910912394524e-06 -0.000922544626519084" free_energy=-29.70103645324707 pbc="T T T"
Ce      -0.00058716       0.00015796       0.00204196       0.00003341      -0.00110987       0.00075549
In       2.36962202      -0.00130585       6.15612552       0.00067784       0.00125245       0.03230546
In       0.00063432       2.36737147       6.15317231       0.00029054      -0.00072628       0.03261218
In       2.37016385       2.37090131       1.33867540       0.00196838      -0.00043084       0.01708546
In       2.37202211       2.37056501       7.91047856      -0.00154896       0.00290228      -0.02512352
In      -0.00092518       2.36828058       3.09629401      -0.00025002      -0.00106290      -0.02779381
In       2.37056980      -0.00019640       3.10062770      -0.00147247       0.00050957      -0.03025225
Pd      -0.00024344      -0.00012269       4.62813511       0.00030133      -0.00133442       0.00041074
