5
Lattice="3.0709836421652397 0.00014217340979813496 0.9072523027442627 0.9845012868047723 5.1371933550955875 2.3595965022774994 0.0002368160569175364 5.842131017206296e-06 5.762055718701866" Properties=species:S:1:pos:R:3:forces:R:3 material_id=wbm-2-33437 energy=-22.09172248840332 stress="0.0026678526774048805 -2.499029505997896e-06 4.033732693642378e-05 -2.499029505997896e-06 0.0015070425579324365 7.654482033103704e-06 4.033732693642378e-05 7.654482033103704e-06 0.0012129534734413028" free_energy=-22.09172248840332 pbc="T T T"
Rb       0.85755738       1.66776119       2.79699284      -0.00189264      -0.00102356       0.00119472
Rb       3.19852472       3.46714218       6.23139686       0.00155890      -0.00321727      -0.00227735
Co      -0.00009278       0.00003178       0.00039368      -0.00035675      -0.00075157       0.00048137
O        2.31928160       4.08466656       3.51240206       0.00164557       0.01172499      -0.00641175
O        1.73617258       1.05508104       5.51662362      -0.00095510      -0.00673258       0.00701291
