8
Lattice="4.5663960437082 7.6078015356913165e-06 5.191995853426925e-05 7.608162917729586e-06 4.566973127322507 1.5790896978391753e-06 5.191002075761369e-05 1.5763480018827422e-06 4.569103788492659" Properties=species:S:1:pos:R:3:forces:R:3 material_id=wbm-1-31414 energy=-54.96196746826172 stress="0.0024829511530697346 3.868481144309044e-07 2.6436755433678627e-06 3.868481144309044e-07 0.0024372790940105915 -1.3310345821082592e-06 2.6436755433678627e-06 -1.3310345821082592e-06 0.0024324730038642883" free_energy=-54.96196746826172 pbc="T T T"
Al       2.28341501       2.28355399       0.00003290      -0.00053590       0.00039826      -0.00029163
Al       2.28337946       0.00019610       2.28466234      -0.00037298       0.00040697      -0.00028166
Al       0.00023066       2.28341085       2.28446784      -0.00049971       0.00004025      -0.00036357
In       0.00030973       0.00003462       0.00016933      -0.00051105       0.00000363      -0.00026468
N        3.33761376       3.33666775       1.22910460      -0.00910001      -0.00834887       0.00900802
N        3.33715953       1.22959898       3.33916980      -0.00749041       0.00702311      -0.00795470
N        1.22846736       3.33805998       3.33978939       0.00865666      -0.00955593      -0.01016307
N        1.22879118       1.22942467       1.23007566       0.00985337       0.01003259       0.01031116
